<?xml version="1.0" encoding="UTF-8"?>

<!-- generated on 2024-08-23 21:54:48 by Eclipse SUMO sumo Version 1.18.0
<configuration xmlns:xsi="http://www.w3.org/2001/XMLSchema-instance" xsi:noNamespaceSchemaLocation="http://sumo.dlr.de/xsd/sumoConfiguration.xsd">

    <input>
        <net-file value="osm.net.xml.gz"/>
        <route-files value="2021route.rou.xml, adnutoadnu.rou.xml"/>
        <additional-files value="osm.poly.xml.gz"/>
    </input>

    <output>
        <edgedata-output value="ActuatedEdgeData2021.xml"/>
    </output>

    <processing>
        <ignore-route-errors value="true"/>
        <tls.actuated.show-detectors value="true"/>
    </processing>

    <routing>
        <device.rerouting.adaptation-steps value="18"/>
        <device.rerouting.adaptation-interval value="10"/>
    </routing>

    <report>
        <verbose value="true"/>
        <duration-log.statistics value="true"/>
        <no-step-log value="true"/>
    </report>

    <gui_only>
        <gui-settings-file value="osm.view.xml"/>
    </gui_only>

</configuration>
-->

<meandata xmlns:xsi="http://www.w3.org/2001/XMLSchema-instance" xsi:noNamespaceSchemaLocation="http://sumo.dlr.de/xsd/meandata_file.xsd">
    <interval begin="0.00" end="11696.00" id="DEFAULT_EDGEDATA">
        <edge id="-23518777#0" sampledSeconds="8.90" traveltime="8.06" overlapTraveltime="8.90" density="0.01" laneDensity="0.01" occupancy="0.01" waitingTime="0.00" timeLoss="1.24" speed="6.92" speedRelative="0.83" departed="0" arrived="0" entered="1" left="1" laneChangedFrom="0" laneChangedTo="0"/>
        <edge id="-23518777#1" sampledSeconds="10.42" traveltime="9.76" overlapTraveltime="10.42" density="0.01" laneDensity="0.01" occupancy="0.01" waitingTime="0.00" timeLoss="0.85" speed="7.43" speedRelative="0.89" departed="0" arrived="0" entered="1" left="1" laneChangedFrom="0" laneChangedTo="0"/>
        <edge id="-23518777#2" sampledSeconds="4.68" traveltime="4.05" overlapTraveltime="4.68" density="0.01" laneDensity="0.01" occupancy="0.01" waitingTime="0.00" timeLoss="0.05" speed="8.01" speedRelative="0.96" departed="0" arrived="0" entered="1" left="1" laneChangedFrom="0" laneChangedTo="0"/>
        <edge id="-23518777#3" sampledSeconds="7.47" traveltime="7.66" overlapTraveltime="8.33" density="0.01" laneDensity="0.01" occupancy="0.01" waitingTime="0.00" timeLoss="2.01" speed="5.91" speedRelative="0.71" departed="1" arrived="0" entered="0" left="1" laneChangedFrom="0" laneChangedTo="0"/>
        <edge id="-23518959#3" sampledSeconds="3776.06" traveltime="17.13" overlapTraveltime="17.81" density="4.83" laneDensity="4.83" occupancy="1.62" waitingTime="0.00" timeLoss="1063.56" speed="3.95" speedRelative="0.71" departed="0" arrived="0" entered="212" left="212" laneChangedFrom="0" laneChangedTo="0"/>
        <edge id="-23518974#0" sampledSeconds="631.13" traveltime="4.81" overlapTraveltime="5.41" density="1.18" laneDensity="1.18" occupancy="0.37" waitingTime="0.00" timeLoss="180.66" speed="9.09" speedRelative="0.65" departed="0" arrived="0" entered="117" left="117" laneChangedFrom="0" laneChangedTo="0"/>
        <edge id="-23518974#1" sampledSeconds="343.37" traveltime="2.67" overlapTraveltime="2.94" density="0.98" laneDensity="0.98" occupancy="0.30" waitingTime="0.00" timeLoss="70.77" speed="11.32" speedRelative="0.81" departed="0" arrived="0" entered="117" left="117" laneChangedFrom="0" laneChangedTo="0"/>
        <edge id="-23518978#0" sampledSeconds="1410.88" traveltime="4.28" overlapTraveltime="4.58" density="2.54" laneDensity="2.54" occupancy="0.82" waitingTime="0.00" timeLoss="259.35" speed="11.15" speedRelative="0.80" departed="0" arrived="0" entered="308" left="308" laneChangedFrom="0" laneChangedTo="0"/>
        <edge id="-23518978#1" sampledSeconds="864.56" traveltime="3.75" overlapTraveltime="4.08" density="1.75" laneDensity="1.75" occupancy="0.57" waitingTime="0.00" timeLoss="130.86" speed="11.24" speedRelative="0.81" departed="0" arrived="0" entered="212" left="212" laneChangedFrom="0" laneChangedTo="0"/>
        <edge id="-23518978#2" sampledSeconds="1245.58" traveltime="5.57" overlapTraveltime="5.88" density="1.75" laneDensity="1.75" occupancy="0.58" waitingTime="0.00" timeLoss="221.34" speed="10.95" speedRelative="0.79" departed="0" arrived="0" entered="212" left="212" laneChangedFrom="0" laneChangedTo="0"/>
        <edge id="-23519080" sampledSeconds="18261.54" traveltime="116.66" overlapTraveltime="117.81" density="4.33" laneDensity="2.16" occupancy="0.47" waitingTime="12329.00" timeLoss="14114.56" speed="3.08" speedRelative="0.22" departed="156" arrived="0" entered="0" left="156" laneChangedFrom="0" laneChangedTo="0"/>
        <edge id="-23519229#0" sampledSeconds="1759.52" traveltime="14.33" overlapTraveltime="15.04" density="0.92" laneDensity="0.92" occupancy="0.30" waitingTime="0.00" timeLoss="340.27" speed="11.07" speedRelative="0.80" departed="0" arrived="0" entered="117" left="117" laneChangedFrom="0" laneChangedTo="0"/>
        <edge id="-23519229#1" sampledSeconds="405.31" traveltime="3.20" overlapTraveltime="3.47" density="0.87" laneDensity="0.87" occupancy="0.27" waitingTime="0.00" timeLoss="52.09" speed="12.42" speedRelative="0.89" departed="0" arrived="0" entered="117" left="117" laneChangedFrom="0" laneChangedTo="0"/>
        <edge id="-23519229#2" sampledSeconds="2264.18" traveltime="3.12" overlapTraveltime="3.65" density="7.27" laneDensity="7.27" occupancy="2.14" waitingTime="0.00" timeLoss="699.89" speed="8.25" speedRelative="0.59" departed="0" arrived="0" entered="623" left="623" laneChangedFrom="0" laneChangedTo="0"/>
        <edge id="-23519248" sampledSeconds="18205.01" traveltime="12.81" overlapTraveltime="13.65" density="19.96" laneDensity="6.65" occupancy="1.94" waitingTime="1938.00" timeLoss="8026.21" speed="5.94" speedRelative="0.53" departed="0" arrived="0" entered="1334" left="1334" laneChangedFrom="0" laneChangedTo="0"/>
        <edge id="-23519257" sampledSeconds="70.82" traveltime="11.34" overlapTraveltime="11.80" density="0.04" laneDensity="0.04" occupancy="0.02" waitingTime="0.00" timeLoss="10.45" speed="12.35" speedRelative="0.89" departed="0" arrived="0" entered="6" left="6" laneChangedFrom="0" laneChangedTo="0"/>
        <edge id="-23519479#0" sampledSeconds="2357.54" traveltime="3.96" overlapTraveltime="4.67" density="6.50" laneDensity="6.50" occupancy="1.97" waitingTime="10.00" timeLoss="858.27" speed="7.37" speedRelative="0.53" departed="0" arrived="0" entered="506" left="506" laneChangedFrom="0" laneChangedTo="0"/>
        <edge id="-23519479#1" sampledSeconds="3142.27" traveltime="5.91" overlapTraveltime="6.21" density="4.08" laneDensity="4.08" occupancy="1.30" waitingTime="0.00" timeLoss="522.23" speed="11.15" speedRelative="0.80" departed="0" arrived="0" entered="506" left="506" laneChangedFrom="0" laneChangedTo="0"/>
        <edge id="-23519479#2" sampledSeconds="6471.04" traveltime="12.49" overlapTraveltime="12.79" density="4.04" laneDensity="4.04" occupancy="1.31" waitingTime="0.00" timeLoss="1160.97" speed="10.98" speedRelative="0.79" departed="0" arrived="0" entered="506" left="506" laneChangedFrom="0" laneChangedTo="0"/>
        <edge id="-23519483#0" sampledSeconds="6841.64" traveltime="4.03" overlapTraveltime="4.39" density="16.68" laneDensity="5.56" occupancy="1.58" waitingTime="0.00" timeLoss="1436.27" speed="8.70" speedRelative="0.78" departed="0" arrived="228" entered="1562" left="1334" laneChangedFrom="0" laneChangedTo="0"/>
        <edge id="-23519483#1" sampledSeconds="45786.40" traveltime="17.18" overlapTraveltime="17.57" density="99.16" laneDensity="33.05" occupancy="9.88" waitingTime="29106.00" timeLoss="35717.92" speed="2.42" speedRelative="0.22" departed="1406" arrived="1285" entered="1321" left="1442" laneChangedFrom="0" laneChangedTo="0"/>
        <edge id="-23519483#3" sampledSeconds="89568.64" traveltime="66.84" overlapTraveltime="67.48" density="76.37" laneDensity="25.46" occupancy="7.69" waitingTime="60642.65" timeLoss="77176.16" speed="1.53" speedRelative="0.14" departed="1369" arrived="0" entered="0" left="1369" laneChangedFrom="0" laneChangedTo="0"/>
        <edge id="-23519483#4" sampledSeconds="22867.94" traveltime="6.96" overlapTraveltime="7.27" density="31.98" laneDensity="10.66" occupancy="3.04" waitingTime="0.00" timeLoss="4496.83" speed="8.82" speedRelative="0.79" departed="0" arrived="3171" entered="3171" left="0" laneChangedFrom="0" laneChangedTo="0"/>
        <edge id="-23519582#1" sampledSeconds="563.09" traveltime="5.71" overlapTraveltime="5.89" density="0.71" laneDensity="0.35" occupancy="0.08" waitingTime="0.00" timeLoss="76.23" speed="11.92" speedRelative="0.86" departed="0" arrived="96" entered="96" left="0" laneChangedFrom="0" laneChangedTo="0"/>
        <edge id="-23519667#1" sampledSeconds="199.28" traveltime="7.34" overlapTraveltime="7.97" density="0.31" laneDensity="0.31" occupancy="0.11" waitingTime="0.00" timeLoss="37.87" speed="7.38" speedRelative="0.89" departed="0" arrived="0" entered="25" left="25" laneChangedFrom="0" laneChangedTo="0"/>
        <edge id="-23519706#0" sampledSeconds="44234.63" traveltime="81.58" overlapTraveltime="82.83" density="32.47" laneDensity="32.47" occupancy="11.19" waitingTime="27188.00" timeLoss="36488.73" speed="1.45" speedRelative="0.17" departed="0" arrived="0" entered="536" left="536" laneChangedFrom="0" laneChangedTo="0" teleported="1"/>
        <edge id="-23519706#1" sampledSeconds="30405.79" traveltime="59.46" overlapTraveltime="60.17" density="18.95" laneDensity="18.95" occupancy="6.49" waitingTime="16566.00" timeLoss="21828.21" speed="2.34" speedRelative="0.28" departed="0" arrived="0" entered="507" left="507" laneChangedFrom="0" laneChangedTo="0" teleported="1"/>
        <edge id="-23519706#2" sampledSeconds="11482.30" traveltime="53.33" overlapTraveltime="53.92" density="4.79" laneDensity="4.79" occupancy="1.63" waitingTime="4572.00" timeLoss="6341.90" speed="3.86" speedRelative="0.46" departed="0" arrived="0" entered="213" left="213" laneChangedFrom="0" laneChangedTo="0"/>
        <edge id="-23519706#3" sampledSeconds="957.15" traveltime="4.02" overlapTraveltime="4.50" density="2.87" laneDensity="2.87" occupancy="0.86" waitingTime="0.00" timeLoss="170.00" speed="7.09" speedRelative="0.85" departed="0" arrived="0" entered="213" left="213" laneChangedFrom="0" laneChangedTo="0"/>
        <edge id="-23519706#4" sampledSeconds="1170.12" traveltime="5.02" overlapTraveltime="5.50" density="2.80" laneDensity="2.80" occupancy="0.85" waitingTime="0.00" timeLoss="204.19" speed="7.12" speedRelative="0.85" departed="0" arrived="0" entered="213" left="213" laneChangedFrom="0" laneChangedTo="0"/>
        <edge id="-23519706#5" sampledSeconds="9759.59" traveltime="11.13" overlapTraveltime="11.67" density="11.53" laneDensity="11.53" occupancy="3.66" waitingTime="0.00" timeLoss="2095.04" speed="6.49" speedRelative="0.78" departed="0" arrived="0" entered="836" left="836" laneChangedFrom="0" laneChangedTo="0"/>
        <edge id="-23519706#6" sampledSeconds="1700.36" traveltime="1.54" overlapTraveltime="2.05" density="13.94" laneDensity="13.94" occupancy="3.49" waitingTime="0.00" timeLoss="301.42" speed="6.78" speedRelative="0.81" departed="0" arrived="0" entered="836" left="836" laneChangedFrom="0" laneChangedTo="0"/>
        <edge id="-23519706#7" sampledSeconds="872.48" traveltime="0.49" overlapTraveltime="1.15" density="30.20" laneDensity="30.20" occupancy="4.29" waitingTime="19.00" timeLoss="281.18" speed="5.59" speedRelative="0.67" departed="0" arrived="0" entered="836" left="836" laneChangedFrom="0" laneChangedTo="0"/>
        <edge id="-23519706#8" sampledSeconds="27599.11" traveltime="32.40" overlapTraveltime="33.01" density="11.79" laneDensity="3.93" occupancy="1.30" waitingTime="98.00" timeLoss="6958.62" speed="6.16" speedRelative="0.74" departed="0" arrived="0" entered="836" left="836" laneChangedFrom="0" laneChangedTo="0"/>
        <edge id="-23520484#0" sampledSeconds="13504.65" traveltime="10.50" overlapTraveltime="10.47" density="98.43" laneDensity="49.22" occupancy="14.01" waitingTime="7942.00" timeLoss="11163.68" speed="1.41" speedRelative="0.17" departed="1633" arrived="0" entered="0" left="1633" laneChangedFrom="0" laneChangedTo="0"/>
        <edge id="-23520619" sampledSeconds="2279.92" traveltime="6.45" overlapTraveltime="7.27" density="4.01" laneDensity="4.01" occupancy="1.31" waitingTime="0.00" timeLoss="967.32" speed="7.19" speedRelative="0.52" departed="0" arrived="0" entered="314" left="314" laneChangedFrom="0" laneChangedTo="0"/>
        <edge id="-23520880#0" sampledSeconds="518541.69" traveltime="337.18" overlapTraveltime="337.78" density="119.80" laneDensity="59.90" occupancy="17.96" waitingTime="339491.00" timeLoss="449147.76" speed="1.10" speedRelative="0.13" departed="1548" arrived="0" entered="0" left="1548" laneChangedFrom="0" laneChangedTo="0"/>
        <edge id="-23520880#1" sampledSeconds="7607.79" traveltime="8.71" overlapTraveltime="9.18" density="11.50" laneDensity="11.50" occupancy="3.60" waitingTime="0.00" timeLoss="1592.04" speed="6.52" speedRelative="0.78" departed="0" arrived="841" entered="841" left="0" laneChangedFrom="0" laneChangedTo="0"/>
        <edge id="-23520880#2" sampledSeconds="11735.68" traveltime="15.11" overlapTraveltime="15.81" density="46.43" laneDensity="46.43" occupancy="14.57" waitingTime="7956.00" timeLoss="9368.41" speed="1.58" speedRelative="0.19" departed="0" arrived="0" entered="741" left="741" laneChangedFrom="0" laneChangedTo="0"/>
        <edge id="-23520886#0" sampledSeconds="49.18" traveltime="47.77" overlapTraveltime="49.18" density="0.06" laneDensity="0.03" occupancy="0.01" waitingTime="37.00" timeLoss="41.75" speed="1.63" speedRelative="0.15" departed="0" arrived="0" entered="1" left="1" laneChangedFrom="0" laneChangedTo="0"/>
        <edge id="-23520994" sampledSeconds="588.23" traveltime="23.26" overlapTraveltime="23.52" density="0.16" laneDensity="0.16" occupancy="0.06" waitingTime="0.00" timeLoss="61.75" speed="13.70" speedRelative="0.99" departed="0" arrived="0" entered="25" left="25" laneChangedFrom="0" laneChangedTo="0"/>
        <edge id="-23521401#0" sampledSeconds="357346.29" traveltime="509.00" overlapTraveltime="511.10" density="102.52" laneDensity="51.26" occupancy="16.87" waitingTime="279492.00" timeLoss="338142.04" speed="0.59" speedRelative="0.05" departed="469" arrived="0" entered="235" left="704" laneChangedFrom="0" laneChangedTo="0"/>
        <edge id="-23521401#1" sampledSeconds="3710.39" traveltime="18.10" overlapTraveltime="20.10" density="33.25" laneDensity="33.25" occupancy="14.23" waitingTime="2975.00" timeLoss="3472.48" speed="0.70" speedRelative="0.06" departed="0" arrived="0" entered="194" left="194" laneChangedFrom="0" laneChangedTo="0"/>
        <edge id="-23521696#2" sampledSeconds="17855.64" traveltime="15.98" overlapTraveltime="16.47" density="14.52" laneDensity="4.84" occupancy="1.60" waitingTime="0.00" timeLoss="3526.06" speed="6.59" speedRelative="0.79" departed="0" arrived="1093" entered="1094" left="0" laneChangedFrom="0" laneChangedTo="0"/>
        <edge id="-23521793" sampledSeconds="325.86" traveltime="12.56" overlapTraveltime="13.03" density="0.17" laneDensity="0.17" occupancy="0.06" waitingTime="0.00" timeLoss="48.97" speed="12.83" speedRelative="0.92" departed="0" arrived="0" entered="25" left="25" laneChangedFrom="0" laneChangedTo="0"/>
        <edge id="-23521917#5" sampledSeconds="7088.41" traveltime="12.55" overlapTraveltime="12.89" density="5.20" laneDensity="2.60" occupancy="0.84" waitingTime="0.00" timeLoss="1100.63" speed="9.29" speedRelative="0.84" departed="0" arrived="553" entered="553" left="0" laneChangedFrom="0" laneChangedTo="0"/>
        <edge id="-23522098#0" sampledSeconds="18052.57" traveltime="34.89" overlapTraveltime="35.49" density="30.74" laneDensity="30.74" occupancy="9.96" waitingTime="11568.00" timeLoss="15844.27" speed="1.51" speedRelative="0.11" departed="543" arrived="0" entered="0" left="543" laneChangedFrom="0" laneChangedTo="0"/>
        <edge id="-23540252" sampledSeconds="22418.20" traveltime="31.90" overlapTraveltime="32.42" density="12.65" laneDensity="6.33" occupancy="2.16" waitingTime="11698.00" timeLoss="14505.09" speed="4.78" speedRelative="0.34" departed="0" arrived="472" entered="694" left="222" laneChangedFrom="0" laneChangedTo="0"/>
        <edge id="-23540254" sampledSeconds="6883.55" traveltime="4.77" overlapTraveltime="5.16" density="15.06" laneDensity="5.02" occupancy="1.42" waitingTime="3.00" timeLoss="1779.25" speed="8.17" speedRelative="0.74" departed="0" arrived="0" entered="1334" left="1334" laneChangedFrom="0" laneChangedTo="0"/>
        <edge id="-25055326#0" sampledSeconds="13.45" traveltime="1.93" overlapTraveltime="2.25" density="0.04" laneDensity="0.04" occupancy="0.02" waitingTime="0.00" timeLoss="1.46" speed="13.21" speedRelative="0.95" departed="0" arrived="0" entered="6" left="6" laneChangedFrom="0" laneChangedTo="0"/>
        <edge id="-25055326#1" sampledSeconds="42.22" traveltime="6.74" overlapTraveltime="7.04" density="0.04" laneDensity="0.04" occupancy="0.02" waitingTime="0.00" timeLoss="4.35" speed="13.29" speedRelative="0.96" departed="0" arrived="0" entered="6" left="6" laneChangedFrom="0" laneChangedTo="0"/>
        <edge id="-252223483#1" sampledSeconds="17978.75" traveltime="22.41" overlapTraveltime="22.80" density="7.34" laneDensity="1.83" occupancy="0.69" waitingTime="0.00" timeLoss="2681.05" speed="9.36" speedRelative="0.84" departed="0" arrived="792" entered="792" left="0" laneChangedFrom="430" laneChangedTo="430"/>
        <edge id="-252223483#12" sampledSeconds="179031.10" traveltime="158.23" overlapTraveltime="160.01" density="129.01" laneDensity="32.25" occupancy="10.46" waitingTime="142202.00" timeLoss="166571.75" speed="0.76" speedRelative="0.07" departed="1152" arrived="0" entered="0" left="1152" laneChangedFrom="808" laneChangedTo="808" teleported="1"/>
        <edge id="-252223483#2" sampledSeconds="20513.63" traveltime="26.30" overlapTraveltime="26.75" density="7.70" laneDensity="1.92" occupancy="0.73" waitingTime="0.00" timeLoss="4304.12" speed="8.66" speedRelative="0.78" departed="0" arrived="0" entered="767" left="767" laneChangedFrom="2" laneChangedTo="2"/>
        <edge id="-252223483#3" sampledSeconds="24928.44" traveltime="32.05" overlapTraveltime="32.50" density="7.58" laneDensity="1.89" occupancy="0.72" waitingTime="1.00" timeLoss="4982.85" speed="8.77" speedRelative="0.79" departed="0" arrived="0" entered="767" left="767" laneChangedFrom="22" laneChangedTo="22"/>
        <edge id="-252223483#4" sampledSeconds="4648.03" traveltime="5.42" overlapTraveltime="5.88" density="8.30" laneDensity="2.07" occupancy="0.74" waitingTime="0.00" timeLoss="913.35" speed="8.82" speedRelative="0.79" departed="0" arrived="0" entered="792" left="792" laneChangedFrom="0" laneChangedTo="0"/>
        <edge id="-252223483#5" sampledSeconds="1753.11" traveltime="1.78" overlapTraveltime="2.24" density="9.44" laneDensity="2.36" occupancy="0.73" waitingTime="0.00" timeLoss="330.92" speed="8.92" speedRelative="0.80" departed="0" arrived="0" entered="792" left="792" laneChangedFrom="0" laneChangedTo="0"/>
        <edge id="-252223483#6" sampledSeconds="13401.95" traveltime="16.36" overlapTraveltime="16.80" density="7.82" laneDensity="1.95" occupancy="0.74" waitingTime="0.00" timeLoss="2493.27" speed="8.96" speedRelative="0.81" departed="0" arrived="0" entered="798" left="798" laneChangedFrom="0" laneChangedTo="0"/>
        <edge id="-252223483#7" sampledSeconds="1659.84" traveltime="1.66" overlapTraveltime="2.10" density="9.39" laneDensity="2.35" occupancy="0.72" waitingTime="0.00" timeLoss="281.94" speed="9.13" speedRelative="0.82" departed="0" arrived="0" entered="798" left="798" laneChangedFrom="0" laneChangedTo="0"/>
        <edge id="-252223483#8" sampledSeconds="5327.82" traveltime="6.25" overlapTraveltime="6.68" density="7.92" laneDensity="1.98" occupancy="0.72" waitingTime="0.00" timeLoss="876.64" speed="9.19" speedRelative="0.83" departed="0" arrived="0" entered="798" left="798" laneChangedFrom="0" laneChangedTo="0"/>
        <edge id="-252223483#9" sampledSeconds="5255.36" traveltime="6.16" overlapTraveltime="6.59" density="8.33" laneDensity="2.08" occupancy="0.75" waitingTime="190.00" timeLoss="1060.83" speed="8.78" speedRelative="0.79" departed="0" arrived="0" entered="798" left="798" laneChangedFrom="138" laneChangedTo="138"/>
        <edge id="-282035194" sampledSeconds="49021.02" traveltime="36.08" overlapTraveltime="36.53" density="45.01" laneDensity="22.51" occupancy="7.04" waitingTime="30344.00" timeLoss="39369.57" speed="2.64" speedRelative="0.19" departed="732" arrived="637" entered="638" left="733" laneChangedFrom="0" laneChangedTo="0"/>
        <edge id="-596568238#0" sampledSeconds="1175.75" traveltime="4.24" overlapTraveltime="4.50" density="2.51" laneDensity="0.84" occupancy="0.19" waitingTime="0.00" timeLoss="167.36" speed="9.45" speedRelative="0.85" departed="0" arrived="264" entered="264" left="0" laneChangedFrom="0" laneChangedTo="0"/>
        <edge id="-600501527#2" sampledSeconds="26.14" traveltime="3.58" overlapTraveltime="4.35" density="0.13" laneDensity="0.13" occupancy="0.04" waitingTime="0.00" timeLoss="6.06" speed="4.77" speedRelative="0.86" departed="0" arrived="0" entered="6" left="6" laneChangedFrom="0" laneChangedTo="0"/>
        <edge id="-724187422#0" sampledSeconds="3049.31" traveltime="3.34" overlapTraveltime="3.73" density="9.88" laneDensity="3.29" occupancy="0.92" waitingTime="0.00" timeLoss="841.98" speed="7.93" speedRelative="0.71" departed="0" arrived="0" entered="818" left="818" laneChangedFrom="0" laneChangedTo="0"/>
        <edge id="-724187422#1" sampledSeconds="35869.02" traveltime="49.96" overlapTraveltime="50.34" density="27.52" laneDensity="9.17" occupancy="2.83" waitingTime="22672.00" timeLoss="28434.33" speed="2.28" speedRelative="0.20" departed="733" arrived="0" entered="0" left="733" laneChangedFrom="0" laneChangedTo="0"/>
        <edge id="-836685800#0" sampledSeconds="10440.78" traveltime="6.74" overlapTraveltime="7.11" density="15.34" laneDensity="5.11" occupancy="1.57" waitingTime="0.00" timeLoss="2190.17" speed="8.64" speedRelative="0.78" departed="0" arrived="0" entered="1468" left="1468" laneChangedFrom="0" laneChangedTo="0"/>
        <edge id="-836685800#1" sampledSeconds="41948.06" traveltime="31.41" overlapTraveltime="31.76" density="53.20" laneDensity="17.73" occupancy="5.41" waitingTime="24291.00" timeLoss="33398.66" speed="2.22" speedRelative="0.20" departed="1383" arrived="0" entered="0" left="1383" laneChangedFrom="0" laneChangedTo="0"/>
        <edge id="-836685805#1" sampledSeconds="226749.91" traveltime="137.16" overlapTraveltime="137.54" density="83.27" laneDensity="27.76" occupancy="8.10" waitingTime="148923.00" timeLoss="191329.57" speed="1.71" speedRelative="0.15" departed="1670" arrived="0" entered="0" left="1670" laneChangedFrom="0" laneChangedTo="0"/>
        <edge id="-836685805#2" sampledSeconds="10885.04" traveltime="7.15" overlapTraveltime="7.49" density="14.84" laneDensity="4.95" occupancy="1.53" waitingTime="0.00" timeLoss="2117.95" speed="8.81" speedRelative="0.79" departed="0" arrived="1468" entered="1468" left="0" laneChangedFrom="0" laneChangedTo="0"/>
        <edge id="-836685805#3" sampledSeconds="12737.69" traveltime="8.29" overlapTraveltime="8.68" density="15.71" laneDensity="5.24" occupancy="1.63" waitingTime="0.00" timeLoss="2993.29" speed="8.37" speedRelative="0.75" departed="0" arrived="0" entered="1468" left="1468" laneChangedFrom="0" laneChangedTo="0"/>
        <edge id="-836685805#4" sampledSeconds="9417.25" traveltime="6.03" overlapTraveltime="6.42" density="15.73" laneDensity="5.24" occupancy="1.60" waitingTime="0.00" timeLoss="2110.16" speed="8.49" speedRelative="0.76" departed="0" arrived="0" entered="1468" left="1468" laneChangedFrom="0" laneChangedTo="0"/>
        <edge id="-902581873" sampledSeconds="404.93" traveltime="8.29" overlapTraveltime="9.88" density="0.65" laneDensity="0.65" occupancy="0.23" waitingTime="7.00" timeLoss="203.13" speed="5.84" speedRelative="0.42" departed="0" arrived="0" entered="41" left="41" laneChangedFrom="0" laneChangedTo="0"/>
        <edge id="23518777#0" sampledSeconds="8.41" traveltime="7.70" overlapTraveltime="8.41" density="0.01" laneDensity="0.01" occupancy="0.01" waitingTime="0.00" timeLoss="0.79" speed="7.33" speedRelative="0.88" departed="0" arrived="0" entered="1" left="1" laneChangedFrom="0" laneChangedTo="0"/>
        <edge id="23518777#1" sampledSeconds="10.58" traveltime="9.89" overlapTraveltime="10.58" density="0.01" laneDensity="0.01" occupancy="0.01" waitingTime="0.00" timeLoss="1.02" speed="7.31" speedRelative="0.88" departed="0" arrived="0" entered="1" left="1" laneChangedFrom="0" laneChangedTo="0"/>
        <edge id="23518777#2" sampledSeconds="4.93" traveltime="4.29" overlapTraveltime="4.93" density="0.01" laneDensity="0.01" occupancy="0.01" waitingTime="0.00" timeLoss="0.29" speed="7.61" speedRelative="0.91" departed="0" arrived="0" entered="1" left="1" laneChangedFrom="0" laneChangedTo="0"/>
        <edge id="23518777#3" sampledSeconds="5.94" traveltime="5.90" overlapTraveltime="6.57" density="0.01" laneDensity="0.01" occupancy="0.01" waitingTime="0.00" timeLoss="0.43" speed="7.50" speedRelative="0.90" departed="0" arrived="1" entered="1" left="0" laneChangedFrom="0" laneChangedTo="0"/>
        <edge id="23518904" sampledSeconds="31375.38" traveltime="15.56" overlapTraveltime="17.34" density="69.41" laneDensity="23.14" occupancy="6.87" waitingTime="18490.00" timeLoss="24455.76" speed="2.42" speedRelative="0.22" departed="0" arrived="0" entered="1815" left="1815" laneChangedFrom="0" laneChangedTo="0"/>
        <edge id="23518959#1" sampledSeconds="1471.09" traveltime="11.96" overlapTraveltime="12.57" density="2.49" laneDensity="2.49" occupancy="0.78" waitingTime="0.00" timeLoss="406.61" speed="4.29" speedRelative="0.77" departed="0" arrived="0" entered="117" left="117" laneChangedFrom="0" laneChangedTo="0"/>
        <edge id="23518959#4" sampledSeconds="4408.39" traveltime="14.25" overlapTraveltime="15.00" density="12.22" laneDensity="12.22" occupancy="3.69" waitingTime="1704.00" timeLoss="2606.45" speed="2.27" speedRelative="0.41" departed="0" arrived="0" entered="294" left="294" laneChangedFrom="0" laneChangedTo="0" teleported="1"/>
        <edge id="23519061#1" sampledSeconds="1128.69" traveltime="9.06" overlapTraveltime="9.66" density="1.41" laneDensity="1.41" occupancy="0.46" waitingTime="122.00" timeLoss="511.34" speed="7.42" speedRelative="0.53" departed="0" arrived="0" entered="117" left="117" laneChangedFrom="0" laneChangedTo="0"/>
        <edge id="23519061#2" sampledSeconds="254.07" traveltime="11.83" overlapTraveltime="12.10" density="0.16" laneDensity="0.16" occupancy="0.05" waitingTime="0.00" timeLoss="35.52" speed="11.38" speedRelative="0.82" departed="0" arrived="0" entered="21" left="21" laneChangedFrom="0" laneChangedTo="0"/>
        <edge id="23519061#3" sampledSeconds="100.19" traveltime="4.24" overlapTraveltime="4.79" density="0.24" laneDensity="0.24" occupancy="0.07" waitingTime="2.00" timeLoss="32.21" speed="8.17" speedRelative="0.59" departed="0" arrived="0" entered="21" left="21" laneChangedFrom="0" laneChangedTo="0"/>
        <edge id="23519080" sampledSeconds="1815.17" traveltime="30.09" overlapTraveltime="30.27" density="0.43" laneDensity="0.22" occupancy="0.05" waitingTime="0.00" timeLoss="229.33" speed="11.99" speedRelative="0.86" departed="0" arrived="60" entered="60" left="0" laneChangedFrom="0" laneChangedTo="0"/>
        <edge id="23519164" sampledSeconds="25043.02" traveltime="13.65" overlapTraveltime="14.09" density="34.28" laneDensity="11.43" occupancy="3.56" waitingTime="9054.00" timeLoss="14399.60" speed="4.67" speedRelative="0.42" departed="0" arrived="0" entered="1779" left="1779" laneChangedFrom="0" laneChangedTo="0"/>
        <edge id="23519248" sampledSeconds="44426.00" traveltime="23.48" overlapTraveltime="24.47" density="48.85" laneDensity="16.28" occupancy="4.95" waitingTime="20753.00" timeLoss="31039.43" speed="3.31" speedRelative="0.30" departed="0" arrived="0" entered="1815" left="1815" laneChangedFrom="0" laneChangedTo="0"/>
        <edge id="23519339" sampledSeconds="162029.06" traveltime="169.32" overlapTraveltime="169.80" density="91.41" laneDensity="45.71" occupancy="14.11" waitingTime="124903.00" timeLoss="151075.40" speed="0.91" speedRelative="0.07" departed="746" arrived="0" entered="223" left="969" laneChangedFrom="0" laneChangedTo="0"/>
        <edge id="23519391#1" sampledSeconds="36.57" traveltime="5.55" overlapTraveltime="6.11" density="0.06" laneDensity="0.06" occupancy="0.02" waitingTime="0.00" timeLoss="12.58" speed="8.99" speedRelative="0.65" departed="0" arrived="0" entered="6" left="6" laneChangedFrom="0" laneChangedTo="0"/>
        <edge id="23519463" sampledSeconds="31.45" traveltime="4.93" overlapTraveltime="5.24" density="0.04" laneDensity="0.04" occupancy="0.02" waitingTime="0.00" timeLoss="3.45" speed="13.19" speedRelative="0.95" departed="0" arrived="0" entered="6" left="6" laneChangedFrom="0" laneChangedTo="0"/>
        <edge id="23519483#0" sampledSeconds="48530.88" traveltime="15.59" overlapTraveltime="16.02" density="118.32" laneDensity="39.44" occupancy="11.21" waitingTime="30628.00" timeLoss="38028.88" speed="2.38" speedRelative="0.21" departed="1346" arrived="1778" entered="1815" left="1383" laneChangedFrom="0" laneChangedTo="0"/>