<?xml version="1.0" encoding="UTF-8"?>

<!-- generated on 2024-08-24 02:23:38 by Eclipse SUMO sumo Version 1.18.0
<configuration xmlns:xsi="http://www.w3.org/2001/XMLSchema-instance" xsi:noNamespaceSchemaLocation="http://sumo.dlr.de/xsd/sumoConfiguration.xsd">

    <input>
        <net-file value="osm.net.xml.gz"/>
        <route-files value="2021route.rou.xml, adnutoadnu.rou.xml"/>
        <additional-files value="osm.poly.xml.gz"/>
    </input>

    <output>
        <edgedata-output value="WithoutTLSEdgeData2021.xml"/>
    </output>

    <processing>
        <ignore-route-errors value="true"/>
        <tls.actuated.show-detectors value="false"/>
    </processing>

    <routing>
        <device.rerouting.adaptation-steps value="18"/>
        <device.rerouting.adaptation-interval value="10"/>
    </routing>

    <report>
        <verbose value="true"/>
        <duration-log.statistics value="true"/>
        <no-step-log value="true"/>
    </report>

    <gui_only>
        <gui-settings-file value="osm.view.xml"/>
    </gui_only>

</configuration>
-->

<meandata xmlns:xsi="http://www.w3.org/2001/XMLSchema-instance" xsi:noNamespaceSchemaLocation="http://sumo.dlr.de/xsd/meandata_file.xsd">
    <interval begin="0.00" end="9962.00" id="DEFAULT_EDGEDATA">
        <edge id="-23518777#0" sampledSeconds="8.51" traveltime="7.81" overlapTraveltime="8.51" density="0.02" laneDensity="0.02" occupancy="0.01" waitingTime="0.00" timeLoss="0.84" speed="7.24" speedRelative="0.87" departed="0" arrived="0" entered="1" left="1" laneChangedFrom="0" laneChangedTo="0"/>
        <edge id="-23518777#1" sampledSeconds="10.34" traveltime="9.67" overlapTraveltime="10.34" density="0.01" laneDensity="0.01" occupancy="0.01" waitingTime="0.00" timeLoss="0.77" speed="7.49" speedRelative="0.90" departed="0" arrived="0" entered="1" left="1" laneChangedFrom="0" laneChangedTo="0"/>
        <edge id="-23518777#2" sampledSeconds="5.00" traveltime="4.38" overlapTraveltime="5.00" density="0.02" laneDensity="0.02" occupancy="0.01" waitingTime="0.00" timeLoss="0.37" speed="7.49" speedRelative="0.90" departed="0" arrived="0" entered="1" left="1" laneChangedFrom="0" laneChangedTo="0"/>
        <edge id="-23518777#3" sampledSeconds="7.43" traveltime="7.59" overlapTraveltime="8.28" density="0.02" laneDensity="0.02" occupancy="0.01" waitingTime="0.00" timeLoss="1.97" speed="5.94" speedRelative="0.71" departed="1" arrived="0" entered="0" left="1" laneChangedFrom="0" laneChangedTo="0"/>
        <edge id="-23518959#3" sampledSeconds="1407.41" traveltime="16.51" overlapTraveltime="17.16" density="2.11" laneDensity="2.11" occupancy="0.68" waitingTime="0.00" timeLoss="376.92" speed="4.09" speedRelative="0.74" departed="0" arrived="0" entered="82" left="82" laneChangedFrom="0" laneChangedTo="0"/>
        <edge id="-23518974#0" sampledSeconds="267.23" traveltime="4.64" overlapTraveltime="5.25" density="0.59" laneDensity="0.59" occupancy="0.19" waitingTime="0.00" timeLoss="74.06" speed="9.38" speedRelative="0.68" departed="0" arrived="0" entered="51" left="51" laneChangedFrom="0" laneChangedTo="0"/>
        <edge id="-23518974#1" sampledSeconds="148.94" traveltime="2.66" overlapTraveltime="2.93" density="0.50" laneDensity="0.50" occupancy="0.15" waitingTime="0.00" timeLoss="32.10" speed="11.41" speedRelative="0.82" departed="0" arrived="0" entered="51" left="51" laneChangedFrom="0" laneChangedTo="0"/>
        <edge id="-23518978#0" sampledSeconds="557.92" traveltime="4.04" overlapTraveltime="4.33" density="1.18" laneDensity="1.18" occupancy="0.37" waitingTime="0.00" timeLoss="85.79" speed="11.79" speedRelative="0.85" departed="0" arrived="0" entered="129" left="129" laneChangedFrom="0" laneChangedTo="0"/>
        <edge id="-23518978#1" sampledSeconds="316.15" traveltime="3.56" overlapTraveltime="3.86" density="0.75" laneDensity="0.75" occupancy="0.24" waitingTime="0.00" timeLoss="37.77" speed="11.86" speedRelative="0.85" departed="0" arrived="0" entered="82" left="82" laneChangedFrom="0" laneChangedTo="0"/>
        <edge id="-23518978#2" sampledSeconds="463.77" traveltime="5.37" overlapTraveltime="5.66" density="0.77" laneDensity="0.77" occupancy="0.25" waitingTime="0.00" timeLoss="75.02" speed="11.35" speedRelative="0.82" departed="0" arrived="0" entered="82" left="82" laneChangedFrom="0" laneChangedTo="0"/>
        <edge id="-23519080" sampledSeconds="134107.91" traveltime="864.15" overlapTraveltime="865.15" density="37.31" laneDensity="18.66" occupancy="4.10" waitingTime="96480.00" timeLoss="129969.70" speed="0.42" speedRelative="0.03" departed="156" arrived="0" entered="0" left="156" laneChangedFrom="0" laneChangedTo="0"/>
        <edge id="-23519229#0" sampledSeconds="731.62" traveltime="13.67" overlapTraveltime="14.35" density="0.45" laneDensity="0.45" occupancy="0.15" waitingTime="0.00" timeLoss="124.13" speed="11.61" speedRelative="0.84" departed="0" arrived="0" entered="51" left="51" laneChangedFrom="0" laneChangedTo="0"/>
        <edge id="-23519229#1" sampledSeconds="169.48" traveltime="3.06" overlapTraveltime="3.33" density="0.43" laneDensity="0.43" occupancy="0.14" waitingTime="0.00" timeLoss="18.21" speed="12.98" speedRelative="0.93" departed="0" arrived="0" entered="51" left="51" laneChangedFrom="0" laneChangedTo="0"/>
        <edge id="-23519229#2" sampledSeconds="2194.80" traveltime="3.14" overlapTraveltime="3.69" density="8.28" laneDensity="8.28" occupancy="2.43" waitingTime="0.00" timeLoss="680.72" speed="8.15" speedRelative="0.59" departed="0" arrived="0" entered="597" left="597" laneChangedFrom="0" laneChangedTo="0"/>
        <edge id="-23519248" sampledSeconds="22725.58" traveltime="16.00" overlapTraveltime="17.04" density="29.25" laneDensity="9.75" occupancy="2.85" waitingTime="4981.00" timeLoss="12545.98" speed="4.76" speedRelative="0.43" departed="0" arrived="0" entered="1334" left="1334" laneChangedFrom="0" laneChangedTo="0"/>
        <edge id="-23519257" sampledSeconds="11.42" traveltime="11.20" overlapTraveltime="11.42" density="0.01" laneDensity="0.01" occupancy="0.00" waitingTime="0.00" timeLoss="1.26" speed="12.61" speedRelative="0.91" departed="0" arrived="0" entered="1" left="1" laneChangedFrom="0" laneChangedTo="0"/>
        <edge id="-23519479#0" sampledSeconds="2718.71" traveltime="4.25" overlapTraveltime="5.00" density="8.80" laneDensity="8.80" occupancy="2.66" waitingTime="12.00" timeLoss="1109.26" speed="6.89" speedRelative="0.50" departed="0" arrived="0" entered="546" left="546" laneChangedFrom="0" laneChangedTo="0"/>
        <edge id="-23519479#1" sampledSeconds="3409.11" traveltime="5.93" overlapTraveltime="6.25" density="5.19" laneDensity="5.19" occupancy="1.64" waitingTime="0.00" timeLoss="604.31" speed="11.09" speedRelative="0.80" departed="0" arrived="0" entered="546" left="546" laneChangedFrom="0" laneChangedTo="0"/>
        <edge id="-23519479#2" sampledSeconds="6917.16" traveltime="12.37" overlapTraveltime="12.67" density="5.07" laneDensity="5.07" occupancy="1.64" waitingTime="0.00" timeLoss="1231.67" speed="11.08" speedRelative="0.80" departed="0" arrived="0" entered="546" left="546" laneChangedFrom="0" laneChangedTo="0"/>
        <edge id="-23519483#0" sampledSeconds="9212.13" traveltime="5.37" overlapTraveltime="5.91" density="26.37" laneDensity="8.79" occupancy="2.46" waitingTime="1406.33" timeLoss="3803.34" speed="6.46" speedRelative="0.58" departed="0" arrived="228" entered="1562" left="1334" laneChangedFrom="0" laneChangedTo="0"/>
        <edge id="-23519483#1" sampledSeconds="18531.38" traveltime="6.72" overlapTraveltime="7.12" density="47.12" laneDensity="15.71" occupancy="4.68" waitingTime="1630.00" timeLoss="8460.80" speed="5.98" speedRelative="0.54" departed="1406" arrived="1285" entered="1321" left="1442" laneChangedFrom="0" laneChangedTo="0"/>
        <edge id="-23519483#3" sampledSeconds="24472.97" traveltime="17.83" overlapTraveltime="18.44" density="24.50" laneDensity="8.17" occupancy="2.47" waitingTime="2959.11" timeLoss="12080.96" speed="5.60" speedRelative="0.50" departed="1369" arrived="0" entered="0" left="1369" laneChangedFrom="0" laneChangedTo="0"/>
        <edge id="-23519483#4" sampledSeconds="22691.05" traveltime="6.92" overlapTraveltime="7.23" density="37.26" laneDensity="12.42" occupancy="3.53" waitingTime="0.00" timeLoss="4346.25" speed="8.88" speedRelative="0.80" departed="0" arrived="3159" entered="3171" left="0" laneChangedFrom="0" laneChangedTo="0"/>
        <edge id="-23519582#1" sampledSeconds="555.88" traveltime="5.63" overlapTraveltime="5.81" density="0.82" laneDensity="0.41" occupancy="0.09" waitingTime="0.00" timeLoss="68.62" speed="12.08" speedRelative="0.87" departed="0" arrived="96" entered="96" left="0" laneChangedFrom="0" laneChangedTo="0"/>
        <edge id="-23519667#1" sampledSeconds="57.00" traveltime="7.46" overlapTraveltime="8.14" density="0.10" laneDensity="0.10" occupancy="0.03" waitingTime="0.00" timeLoss="11.57" speed="7.19" speedRelative="0.86" departed="0" arrived="0" entered="7" left="7" laneChangedFrom="0" laneChangedTo="0"/>
        <edge id="-23519688#2" sampledSeconds="5.41" traveltime="4.69" overlapTraveltime="5.41" density="0.01" laneDensity="0.01" occupancy="0.01" waitingTime="0.00" timeLoss="2.62" speed="8.28" speedRelative="0.60" departed="0" arrived="0" entered="1" left="1" laneChangedFrom="0" laneChangedTo="0"/>
        <edge id="-23519706#0" sampledSeconds="32185.28" traveltime="43.59" overlapTraveltime="44.60" density="27.73" laneDensity="27.73" occupancy="9.33" waitingTime="11070.00" timeLoss="21663.95" speed="2.69" speedRelative="0.32" departed="0" arrived="0" entered="722" left="722" laneChangedFrom="0" laneChangedTo="0"/>
        <edge id="-23519706#1" sampledSeconds="18631.18" traveltime="25.72" overlapTraveltime="26.33" density="13.64" laneDensity="13.64" occupancy="4.53" waitingTime="1903.00" timeLoss="6536.59" speed="5.34" speedRelative="0.64" departed="0" arrived="0" entered="708" left="708" laneChangedFrom="0" laneChangedTo="0"/>
        <edge id="-23519706#2" sampledSeconds="7374.46" traveltime="29.72" overlapTraveltime="30.22" density="3.61" laneDensity="3.61" occupancy="1.21" waitingTime="0.00" timeLoss="1414.25" speed="6.89" speedRelative="0.83" departed="0" arrived="0" entered="244" left="244" laneChangedFrom="0" laneChangedTo="0"/>
        <edge id="-23519706#3" sampledSeconds="1114.83" traveltime="4.08" overlapTraveltime="4.57" density="3.93" laneDensity="3.93" occupancy="1.19" waitingTime="0.00" timeLoss="200.92" speed="6.99" speedRelative="0.84" departed="0" arrived="0" entered="244" left="244" laneChangedFrom="0" laneChangedTo="0"/>
        <edge id="-23519706#4" sampledSeconds="1363.79" traveltime="5.10" overlapTraveltime="5.59" density="3.83" laneDensity="3.83" occupancy="1.19" waitingTime="0.00" timeLoss="242.63" speed="7.01" speedRelative="0.84" departed="0" arrived="0" entered="244" left="244" laneChangedFrom="0" laneChangedTo="0"/>
        <edge id="-23519706#5" sampledSeconds="9877.54" traveltime="11.19" overlapTraveltime="11.74" density="13.70" laneDensity="13.70" occupancy="4.35" waitingTime="0.00" timeLoss="2168.86" speed="6.45" speedRelative="0.77" departed="0" arrived="0" entered="841" left="841" laneChangedFrom="0" laneChangedTo="0"/>
        <edge id="-23519706#6" sampledSeconds="1718.87" traveltime="1.55" overlapTraveltime="2.06" density="16.54" laneDensity="16.54" occupancy="4.15" waitingTime="0.00" timeLoss="311.63" speed="6.75" speedRelative="0.81" departed="0" arrived="0" entered="841" left="841" laneChangedFrom="0" laneChangedTo="0"/>
        <edge id="-23519706#7" sampledSeconds="849.76" traveltime="0.47" overlapTraveltime="1.09" density="34.53" laneDensity="34.53" occupancy="4.88" waitingTime="11.00" timeLoss="254.61" speed="5.78" speedRelative="0.69" departed="0" arrived="0" entered="841" left="841" laneChangedFrom="0" laneChangedTo="0"/>
        <edge id="-23519706#8" sampledSeconds="27748.79" traveltime="32.42" overlapTraveltime="33.02" density="13.92" laneDensity="4.64" occupancy="1.53" waitingTime="127.00" timeLoss="7009.72" speed="6.16" speedRelative="0.74" departed="0" arrived="0" entered="841" left="839" laneChangedFrom="0" laneChangedTo="0"/>
        <edge id="-23519972#4" sampledSeconds="5.23" traveltime="4.44" overlapTraveltime="5.23" density="0.01" laneDensity="0.01" occupancy="0.01" waitingTime="0.00" timeLoss="1.95" speed="9.50" speedRelative="0.68" departed="0" arrived="0" entered="1" left="1" laneChangedFrom="0" laneChangedTo="0"/>
        <edge id="-23519972#5" sampledSeconds="10.09" traveltime="9.79" overlapTraveltime="10.09" density="0.01" laneDensity="0.01" occupancy="0.00" waitingTime="0.00" timeLoss="0.69" speed="16.46" speedRelative="1.19" departed="0" arrived="0" entered="1" left="1" laneChangedFrom="0" laneChangedTo="0"/>
        <edge id="-23520484#0" sampledSeconds="15366.55" traveltime="12.20" overlapTraveltime="11.52" density="131.50" laneDensity="65.75" occupancy="15.71" waitingTime="10327.00" timeLoss="13029.41" speed="1.23" speedRelative="0.15" departed="1633" arrived="0" entered="0" left="1633" laneChangedFrom="0" laneChangedTo="0" teleported="12"/>
        <edge id="-23520619" sampledSeconds="805.99" traveltime="5.53" overlapTraveltime="6.21" density="1.66" laneDensity="1.66" occupancy="0.53" waitingTime="0.00" timeLoss="272.76" speed="8.40" speedRelative="0.60" departed="0" arrived="0" entered="130" left="130" laneChangedFrom="0" laneChangedTo="0"/>
        <edge id="-23520880#0" sampledSeconds="524793.75" traveltime="341.23" overlapTraveltime="341.87" density="142.35" laneDensity="71.17" occupancy="21.38" waitingTime="244433.00" timeLoss="455405.92" speed="1.09" speedRelative="0.13" departed="1548" arrived="0" entered="0" left="1548" laneChangedFrom="0" laneChangedTo="0" teleported="1"/>
        <edge id="-23520880#1" sampledSeconds="7678.97" traveltime="8.79" overlapTraveltime="9.27" density="13.63" laneDensity="13.63" occupancy="4.29" waitingTime="0.00" timeLoss="1660.25" speed="6.46" speedRelative="0.78" departed="0" arrived="841" entered="841" left="0" laneChangedFrom="0" laneChangedTo="0"/>
        <edge id="-23520880#2" sampledSeconds="6592.32" traveltime="6.47" overlapTraveltime="7.19" density="30.62" laneDensity="30.62" occupancy="9.22" waitingTime="2218.00" timeLoss="3669.99" speed="3.49" speedRelative="0.42" departed="0" arrived="0" entered="919" left="919" laneChangedFrom="0" laneChangedTo="0"/>
        <edge id="-23520886#0" sampledSeconds="8.29" traveltime="7.81" overlapTraveltime="8.29" density="0.01" laneDensity="0.01" occupancy="0.00" waitingTime="0.00" timeLoss="0.86" speed="9.67" speedRelative="0.87" departed="0" arrived="0" entered="1" left="1" laneChangedFrom="0" laneChangedTo="0"/>
        <edge id="-23520994" sampledSeconds="165.36" traveltime="23.36" overlapTraveltime="23.62" density="0.05" laneDensity="0.05" occupancy="0.02" waitingTime="0.00" timeLoss="16.57" speed="13.63" speedRelative="0.98" departed="0" arrived="0" entered="7" left="7" laneChangedFrom="0" laneChangedTo="0"/>
        <edge id="-23521317" sampledSeconds="17.80" traveltime="17.03" overlapTraveltime="17.80" density="0.01" laneDensity="0.01" occupancy="0.00" waitingTime="0.00" timeLoss="1.26" speed="15.96" speedRelative="1.15" departed="0" arrived="0" entered="1" left="1" laneChangedFrom="0" laneChangedTo="0"/>
        <edge id="-23521401#0" sampledSeconds="284281.33" traveltime="404.10" overlapTraveltime="405.04" density="95.75" laneDensity="47.88" occupancy="16.38" waitingTime="180299.00" timeLoss="265016.73" speed="0.74" speedRelative="0.07" departed="469" arrived="0" entered="239" left="707" laneChangedFrom="0" laneChangedTo="0" teleported="1"/>
        <edge id="-23521401#1" sampledSeconds="3453.56" traveltime="15.50" overlapTraveltime="17.06" density="36.34" laneDensity="36.34" occupancy="12.89" waitingTime="2469.00" timeLoss="3205.43" speed="0.79" speedRelative="0.07" departed="0" arrived="0" entered="203" left="203" laneChangedFrom="0" laneChangedTo="0"/>
        <edge id="-23521696#2" sampledSeconds="17795.72" traveltime="15.93" overlapTraveltime="16.42" density="16.99" laneDensity="5.66" occupancy="1.87" waitingTime="0.00" timeLoss="3473.17" speed="6.61" speedRelative="0.79" departed="0" arrived="1092" entered="1094" left="0" laneChangedFrom="0" laneChangedTo="0"/>
        <edge id="-23521793" sampledSeconds="89.78" traveltime="12.38" overlapTraveltime="12.83" density="0.06" laneDensity="0.06" occupancy="0.02" waitingTime="0.00" timeLoss="11.52" speed="13.02" speedRelative="0.94" departed="0" arrived="0" entered="7" left="7" laneChangedFrom="0" laneChangedTo="0"/>
        <edge id="-23521917#5" sampledSeconds="7074.23" traveltime="12.52" overlapTraveltime="12.87" density="6.10" laneDensity="3.05" occupancy="0.99" waitingTime="0.00" timeLoss="1085.50" speed="9.31" speedRelative="0.84" departed="0" arrived="552" entered="553" left="0" laneChangedFrom="0" laneChangedTo="0"/>
        <edge id="-23522098#0" sampledSeconds="56269.96" traveltime="110.23" overlapTraveltime="110.28" density="112.50" laneDensity="112.50" occupancy="34.93" waitingTime="46516.00" timeLoss="54073.63" speed="0.48" speedRelative="0.03" departed="543" arrived="0" entered="0" left="543" laneChangedFrom="0" laneChangedTo="0"/>
        <edge id="-23540252" sampledSeconds="11543.24" traveltime="16.34" overlapTraveltime="16.78" density="7.65" laneDensity="3.82" occupancy="1.26" waitingTime="1865.00" timeLoss="3667.13" speed="9.23" speedRelative="0.66" departed="0" arrived="471" entered="690" left="218" laneChangedFrom="0" laneChangedTo="0"/>
        <edge id="-23540254" sampledSeconds="9817.65" traveltime="6.79" overlapTraveltime="7.36" density="25.22" laneDensity="8.41" occupancy="2.35" waitingTime="1774.00" timeLoss="4713.35" speed="5.73" speedRelative="0.52" departed="0" arrived="0" entered="1334" left="1334" laneChangedFrom="0" laneChangedTo="0"/>
        <edge id="-25055326#0" sampledSeconds="2.36" traveltime="2.19" overlapTraveltime="2.36" density="0.01" laneDensity="0.01" occupancy="0.00" waitingTime="0.00" timeLoss="0.42" speed="11.75" speedRelative="0.85" departed="0" arrived="0" entered="1" left="1" laneChangedFrom="0" laneChangedTo="0"/>
        <edge id="-25055326#1" sampledSeconds="7.20" traveltime="7.02" overlapTraveltime="7.20" density="0.01" laneDensity="0.01" occupancy="0.00" waitingTime="0.00" timeLoss="0.78" speed="12.74" speedRelative="0.92" departed="0" arrived="0" entered="1" left="1" laneChangedFrom="0" laneChangedTo="0"/>
        <edge id="-252223483#1" sampledSeconds="17959.29" traveltime="22.39" overlapTraveltime="22.78" density="8.60" laneDensity="2.15" occupancy="0.81" waitingTime="0.00" timeLoss="2668.79" speed="9.37" speedRelative="0.84" departed="0" arrived="792" entered="792" left="0" laneChangedFrom="405" laneChangedTo="405"/>
        <edge id="-252223483#12" sampledSeconds="101802.68" traveltime="88.45" overlapTraveltime="91.03" density="86.13" laneDensity="21.53" occupancy="7.37" waitingTime="62316.00" timeLoss="89327.47" speed="1.34" speedRelative="0.12" departed="1152" arrived="0" entered="0" left="1152" laneChangedFrom="808" laneChangedTo="808"/>
        <edge id="-252223483#2" sampledSeconds="20759.90" traveltime="26.04" overlapTraveltime="26.48" density="9.15" laneDensity="2.29" occupancy="0.87" waitingTime="0.00" timeLoss="4227.34" speed="8.75" speedRelative="0.79" departed="0" arrived="0" entered="784" left="784" laneChangedFrom="6" laneChangedTo="6"/>
        <edge id="-252223483#3" sampledSeconds="25031.64" traveltime="31.49" overlapTraveltime="31.93" density="8.93" laneDensity="2.23" occupancy="0.85" waitingTime="0.00" timeLoss="4688.53" speed="8.93" speedRelative="0.80" departed="0" arrived="0" entered="784" left="784" laneChangedFrom="26" laneChangedTo="26"/>
        <edge id="-252223483#4" sampledSeconds="4528.53" traveltime="5.29" overlapTraveltime="5.72" density="9.49" laneDensity="2.37" occupancy="0.85" waitingTime="0.00" timeLoss="799.96" speed="9.05" speedRelative="0.81" departed="0" arrived="0" entered="792" left="792" laneChangedFrom="0" laneChangedTo="0"/>
        <edge id="-252223483#5" sampledSeconds="1712.47" traveltime="1.74" overlapTraveltime="2.18" density="10.83" laneDensity="2.71" occupancy="0.84" waitingTime="0.00" timeLoss="290.28" speed="9.13" speedRelative="0.82" departed="0" arrived="0" entered="792" left="792" laneChangedFrom="0" laneChangedTo="0"/>
        <edge id="-252223483#6" sampledSeconds="12962.50" traveltime="15.92" overlapTraveltime="16.35" density="8.88" laneDensity="2.22" occupancy="0.83" waitingTime="0.00" timeLoss="2118.99" speed="9.20" speedRelative="0.83" departed="0" arrived="0" entered="793" left="793" laneChangedFrom="0" laneChangedTo="0"/>
        <edge id="-252223483#7" sampledSeconds="1604.83" traveltime="1.62" overlapTraveltime="2.04" density="10.65" laneDensity="2.66" occupancy="0.81" waitingTime="0.00" timeLoss="235.12" speed="9.38" speedRelative="0.84" departed="0" arrived="0" entered="793" left="793" laneChangedFrom="0" laneChangedTo="0"/>
        <edge id="-252223483#8" sampledSeconds="5158.15" traveltime="6.10" overlapTraveltime="6.51" density="9.00" laneDensity="2.25" occupancy="0.81" waitingTime="0.00" timeLoss="732.91" speed="9.44" speedRelative="0.85" departed="0" arrived="0" entered="793" left="793" laneChangedFrom="0" laneChangedTo="0"/>
        <edge id="-252223483#9" sampledSeconds="4919.08" traveltime="5.80" overlapTraveltime="6.21" density="9.15" laneDensity="2.29" occupancy="0.81" waitingTime="8.00" timeLoss="754.55" speed="9.31" speedRelative="0.84" departed="0" arrived="0" entered="793" left="790" laneChangedFrom="316" laneChangedTo="316"/>
        <edge id="-282035194" sampledSeconds="62972.86" traveltime="46.41" overlapTraveltime="47.01" density="67.89" laneDensity="33.95" occupancy="10.89" waitingTime="34015.00" timeLoss="53363.30" speed="2.05" speedRelative="0.15" departed="732" arrived="637" entered="638" left="733" laneChangedFrom="0" laneChangedTo="0"/>
        <edge id="-596568238#0" sampledSeconds="1184.19" traveltime="4.26" overlapTraveltime="4.52" density="2.97" laneDensity="0.99" occupancy="0.23" waitingTime="0.00" timeLoss="173.81" speed="9.40" speedRelative="0.85" departed="0" arrived="264" entered="264" left="0" laneChangedFrom="0" laneChangedTo="0"/>
        <edge id="-600501527#2" sampledSeconds="4.53" traveltime="4.00" overlapTraveltime="4.53" density="0.03" laneDensity="0.03" occupancy="0.01" waitingTime="0.00" timeLoss="1.34" speed="4.18" speedRelative="0.75" departed="0" arrived="0" entered="1" left="1" laneChangedFrom="0" laneChangedTo="0"/>
        <edge id="-724187422#0" sampledSeconds="2634.47" traveltime="2.88" overlapTraveltime="3.22" density="10.02" laneDensity="3.34" occupancy="0.93" waitingTime="0.00" timeLoss="426.42" speed="9.17" speedRelative="0.83" departed="0" arrived="0" entered="818" left="818" laneChangedFrom="0" laneChangedTo="0"/>
        <edge id="-724187422#1" sampledSeconds="9972.20" traveltime="13.59" overlapTraveltime="14.00" density="8.98" laneDensity="2.99" occupancy="0.93" waitingTime="5.97" timeLoss="2537.50" speed="8.18" speedRelative="0.74" departed="733" arrived="0" entered="0" left="733" laneChangedFrom="0" laneChangedTo="0"/>
        <edge id="-836685800#0" sampledSeconds="10126.81" traveltime="6.53" overlapTraveltime="6.90" density="17.46" laneDensity="5.82" occupancy="1.78" waitingTime="0.00" timeLoss="1876.21" speed="8.91" speedRelative="0.80" departed="0" arrived="0" entered="1468" left="1468" laneChangedFrom="0" laneChangedTo="0"/>
        <edge id="-836685800#1" sampledSeconds="13541.35" traveltime="9.82" overlapTraveltime="10.26" density="20.16" laneDensity="6.72" occupancy="2.07" waitingTime="25.00" timeLoss="4990.58" speed="6.87" speedRelative="0.62" departed="1383" arrived="0" entered="0" left="1383" laneChangedFrom="0" laneChangedTo="0"/>
        <edge id="-836685805#1" sampledSeconds="123458.95" traveltime="74.52" overlapTraveltime="74.90" density="53.23" laneDensity="17.74" occupancy="5.21" waitingTime="59310.00" timeLoss="88038.64" speed="3.15" speedRelative="0.28" departed="1670" arrived="0" entered="0" left="1670" laneChangedFrom="0" laneChangedTo="0"/>
        <edge id="-836685805#2" sampledSeconds="10943.68" traveltime="7.19" overlapTraveltime="7.52" density="17.52" laneDensity="5.84" occupancy="1.81" waitingTime="0.00" timeLoss="2172.58" speed="8.77" speedRelative="0.79" departed="0" arrived="1468" entered="1468" left="0" laneChangedFrom="0" laneChangedTo="0"/>
        <edge id="-836685805#3" sampledSeconds="12502.29" traveltime="8.13" overlapTraveltime="8.52" density="18.10" laneDensity="6.03" occupancy="1.87" waitingTime="0.00" timeLoss="2757.89" speed="8.53" speedRelative="0.77" departed="0" arrived="0" entered="1468" left="1468" laneChangedFrom="0" laneChangedTo="0"/>
        <edge id="-836685805#4" sampledSeconds="9162.19" traveltime="5.86" overlapTraveltime="6.24" density="17.97" laneDensity="5.99" occupancy="1.82" waitingTime="0.00" timeLoss="1855.10" speed="8.72" speedRelative="0.79" departed="0" arrived="0" entered="1468" left="1468" laneChangedFrom="0" laneChangedTo="0"/>
        <edge id="-902581873" sampledSeconds="267.47" traveltime="6.13" overlapTraveltime="7.47" density="0.50" laneDensity="0.50" occupancy="0.17" waitingTime="0.00" timeLoss="90.92" speed="7.73" speedRelative="0.56" departed="0" arrived="0" entered="36" left="36" laneChangedFrom="0" laneChangedTo="0"/>
        <edge id="23518777#0" sampledSeconds="8.45" traveltime="7.79" overlapTraveltime="8.45" density="0.01" laneDensity="0.01" occupancy="0.01" waitingTime="0.00" timeLoss="0.83" speed="7.29" speedRelative="0.88" departed="0" arrived="0" entered="1" left="1" laneChangedFrom="0" laneChangedTo="0"/>
        <edge id="23518777#1" sampledSeconds="10.33" traveltime="9.66" overlapTraveltime="10.33" density="0.01" laneDensity="0.01" occupancy="0.01" waitingTime="0.00" timeLoss="0.77" speed="7.49" speedRelative="0.90" departed="0" arrived="0" entered="1" left="1" laneChangedFrom="0" laneChangedTo="0"/>
        <edge id="23518777#2" sampledSeconds="5.12" traveltime="4.38" overlapTraveltime="5.12" density="0.02" laneDensity="0.02" occupancy="0.01" waitingTime="0.00" timeLoss="0.48" speed="7.33" speedRelative="0.88" departed="0" arrived="0" entered="1" left="1" laneChangedFrom="0" laneChangedTo="0"/>
        <edge id="23518777#3" sampledSeconds="6.54" traveltime="5.85" overlapTraveltime="6.54" density="0.01" laneDensity="0.01" occupancy="0.01" waitingTime="0.00" timeLoss="0.46" speed="7.53" speedRelative="0.90" departed="0" arrived="1" entered="1" left="0" laneChangedFrom="0" laneChangedTo="0"/>
        <edge id="23518904" sampledSeconds="16272.19" traveltime="8.00" overlapTraveltime="8.99" density="42.26" laneDensity="14.09" occupancy="4.14" waitingTime="6368.00" timeLoss="9352.57" speed="4.67" speedRelative="0.42" departed="0" arrived="0" entered="1815" left="1815" laneChangedFrom="0" laneChangedTo="0"/>
        <edge id="23518959#1" sampledSeconds="607.26" traveltime="11.28" overlapTraveltime="11.90" density="1.21" laneDensity="1.21" occupancy="0.39" waitingTime="0.00" timeLoss="151.76" speed="4.54" speedRelative="0.82" departed="0" arrived="0" entered="51" left="51" laneChangedFrom="0" laneChangedTo="0"/>
        <edge id="23518959#4" sampledSeconds="4985.71" traveltime="10.00" overlapTraveltime="10.76" density="16.23" laneDensity="16.23" occupancy="4.98" waitingTime="710.00" timeLoss="2141.24" speed="3.18" speedRelative="0.57" departed="0" arrived="0" entered="464" left="464" laneChangedFrom="0" laneChangedTo="0"/>
        <edge id="23519061#1" sampledSeconds="444.73" traveltime="8.14" overlapTraveltime="8.73" density="0.65" laneDensity="0.65" occupancy="0.21" waitingTime="29.00" timeLoss="178.84" speed="8.22" speedRelative="0.59" departed="0" arrived="0" entered="51" left="51" laneChangedFrom="0" laneChangedTo="0"/>
        <edge id="23519061#2" sampledSeconds="48.52" traveltime="11.85" overlapTraveltime="12.12" density="0.04" laneDensity="0.04" occupancy="0.01" waitingTime="0.00" timeLoss="6.33" speed="11.39" speedRelative="0.82" departed="0" arrived="0" entered="4" left="4" laneChangedFrom="0" laneChangedTo="0"/>
        <edge id="23519061#3" sampledSeconds="24.77" traveltime="5.57" overlapTraveltime="6.14" density="0.07" laneDensity="0.07" occupancy="0.02" waitingTime="5.00" timeLoss="11.63" speed="6.38" speedRelative="0.46" departed="0" arrived="0" entered="4" left="4" laneChangedFrom="0" laneChangedTo="0"/>
        <edge id="23519080" sampledSeconds="1812.89" traveltime="30.05" overlapTraveltime="30.23" density="0.50" laneDensity="0.25" occupancy="0.05" waitingTime="0.00" timeLoss="226.79" speed="12.01" speedRelative="0.86" departed="0" arrived="60" entered="60" left="0" laneChangedFrom="0" laneChangedTo="0"/>
        <edge id="23519164" sampledSeconds="20985.16" traveltime="11.42" overlapTraveltime="11.80" density="33.72" laneDensity="11.24" occupancy="3.49" waitingTime="6972.00" timeLoss="10341.74" speed="5.57" speedRelative="0.50" departed="0" arrived="0" entered="1779" left="1779" laneChangedFrom="0" laneChangedTo="0"/>
        <edge id="23519248" sampledSeconds="28469.79" traveltime="14.94" overlapTraveltime="15.69" density="36.76" laneDensity="12.25" occupancy="3.75" waitingTime="10425.00" timeLoss="15083.22" speed="5.16" speedRelative="0.46" departed="0" arrived="0" entered="1815" left="1815" laneChangedFrom="0" laneChangedTo="0"/>
        <edge id="23519339" sampledSeconds="102394.36" traveltime="106.84" overlapTraveltime="107.79" density="67.82" laneDensity="33.91" occupancy="10.58" waitingTime="51138.00" timeLoss="91483.96" speed="1.44" speedRelative="0.10" departed="746" arrived="0" entered="219" left="965" laneChangedFrom="0" laneChangedTo="0"/>