<?xml version="1.0" encoding="UTF-8"?>

<!-- generated on 2024-08-24 02:09:28 by Eclipse SUMO sumo Version 1.18.0
<configuration xmlns:xsi="http://www.w3.org/2001/XMLSchema-instance" xsi:noNamespaceSchemaLocation="http://sumo.dlr.de/xsd/sumoConfiguration.xsd">

    <input>
        <net-file value="osm.net.xml.gz"/>
        <route-files value="2019route.rou.xml, adnutoadnu.rou.xml"/>
        <additional-files value="osm.poly.xml.gz"/>
    </input>

    <output>
        <edgedata-output value="StaticEdgeData2019.xml"/>
    </output>

    <processing>
        <ignore-route-errors value="true"/>
        <tls.actuated.show-detectors value="true"/>
    </processing>

    <routing>
        <device.rerouting.adaptation-steps value="18"/>
        <device.rerouting.adaptation-interval value="10"/>
    </routing>

    <report>
        <verbose value="true"/>
        <duration-log.statistics value="true"/>
        <no-step-log value="true"/>
    </report>

    <gui_only>
        <gui-settings-file value="osm.view.xml"/>
    </gui_only>

</configuration>
-->

<meandata xmlns:xsi="http://www.w3.org/2001/XMLSchema-instance" xsi:noNamespaceSchemaLocation="http://sumo.dlr.de/xsd/meandata_file.xsd">
    <interval begin="0.00" end="12266.00" id="DEFAULT_EDGEDATA">
        <edge id="-23518777#0" sampledSeconds="8.60" traveltime="7.89" overlapTraveltime="8.60" density="0.01" laneDensity="0.01" occupancy="0.01" waitingTime="0.00" timeLoss="0.79" speed="7.16" speedRelative="0.86" departed="0" arrived="0" entered="1" left="1" laneChangedFrom="0" laneChangedTo="0"/>
        <edge id="-23518777#1" sampledSeconds="10.63" traveltime="9.99" overlapTraveltime="10.63" density="0.01" laneDensity="0.01" occupancy="0.01" waitingTime="0.00" timeLoss="0.82" speed="7.28" speedRelative="0.87" departed="0" arrived="0" entered="1" left="1" laneChangedFrom="0" laneChangedTo="0"/>
        <edge id="-23518777#2" sampledSeconds="4.81" traveltime="4.15" overlapTraveltime="4.81" density="0.01" laneDensity="0.01" occupancy="0.01" waitingTime="0.00" timeLoss="0.06" speed="7.79" speedRelative="0.94" departed="0" arrived="0" entered="1" left="1" laneChangedFrom="0" laneChangedTo="0"/>
        <edge id="-23518777#3" sampledSeconds="7.59" traveltime="7.75" overlapTraveltime="8.46" density="0.01" laneDensity="0.01" occupancy="0.01" waitingTime="0.00" timeLoss="1.99" speed="5.82" speedRelative="0.70" departed="1" arrived="0" entered="0" left="1" laneChangedFrom="0" laneChangedTo="0"/>
        <edge id="-23518959#3" sampledSeconds="5475.35" traveltime="17.24" overlapTraveltime="17.89" density="6.68" laneDensity="6.68" occupancy="2.12" waitingTime="0.00" timeLoss="1580.00" speed="3.92" speedRelative="0.71" departed="0" arrived="0" entered="306" left="306" laneChangedFrom="0" laneChangedTo="0"/>
        <edge id="-23518974#0" sampledSeconds="975.97" traveltime="4.50" overlapTraveltime="5.09" density="1.74" laneDensity="1.74" occupancy="0.55" waitingTime="0.00" timeLoss="246.98" speed="9.65" speedRelative="0.69" departed="0" arrived="0" entered="192" left="192" laneChangedFrom="0" laneChangedTo="0"/>
        <edge id="-23518974#1" sampledSeconds="560.38" traveltime="2.66" overlapTraveltime="2.93" density="1.53" laneDensity="1.53" occupancy="0.46" waitingTime="0.00" timeLoss="118.95" speed="11.37" speedRelative="0.82" departed="0" arrived="0" entered="192" left="192" laneChangedFrom="0" laneChangedTo="0"/>
        <edge id="-23518978#0" sampledSeconds="2211.02" traveltime="4.19" overlapTraveltime="4.48" density="3.79" laneDensity="3.79" occupancy="1.18" waitingTime="0.00" timeLoss="382.30" speed="11.38" speedRelative="0.82" departed="0" arrived="0" entered="494" left="494" laneChangedFrom="0" laneChangedTo="0"/>
        <edge id="-23518978#1" sampledSeconds="1226.90" traveltime="3.71" overlapTraveltime="4.01" density="2.36" laneDensity="2.36" occupancy="0.73" waitingTime="0.00" timeLoss="180.80" speed="11.39" speedRelative="0.82" departed="0" arrived="0" entered="306" left="306" laneChangedFrom="0" laneChangedTo="0"/>
        <edge id="-23518978#2" sampledSeconds="1781.80" traveltime="5.53" overlapTraveltime="5.83" density="2.39" laneDensity="2.39" occupancy="0.75" waitingTime="0.00" timeLoss="313.63" speed="11.01" speedRelative="0.79" departed="0" arrived="0" entered="306" left="306" laneChangedFrom="0" laneChangedTo="0"/>
        <edge id="-23519080" sampledSeconds="5106.11" traveltime="60.75" overlapTraveltime="61.17" density="1.15" laneDensity="0.58" occupancy="0.13" waitingTime="1991.00" timeLoss="2918.48" speed="5.93" speedRelative="0.43" departed="84" arrived="0" entered="0" left="84" laneChangedFrom="0" laneChangedTo="0"/>
        <edge id="-23519229#0" sampledSeconds="2698.85" traveltime="13.43" overlapTraveltime="14.06" density="1.35" laneDensity="1.35" occupancy="0.44" waitingTime="0.00" timeLoss="397.69" speed="11.84" speedRelative="0.85" departed="0" arrived="0" entered="192" left="192" laneChangedFrom="0" laneChangedTo="0"/>
        <edge id="-23519229#1" sampledSeconds="641.22" traveltime="3.08" overlapTraveltime="3.34" density="1.32" laneDensity="1.32" occupancy="0.40" waitingTime="0.00" timeLoss="69.21" speed="12.88" speedRelative="0.93" departed="0" arrived="0" entered="192" left="192" laneChangedFrom="0" laneChangedTo="0"/>
        <edge id="-23519229#2" sampledSeconds="2638.44" traveltime="3.05" overlapTraveltime="3.57" density="8.08" laneDensity="8.08" occupancy="2.44" waitingTime="0.00" timeLoss="787.64" speed="8.46" speedRelative="0.61" departed="0" arrived="0" entered="743" left="743" laneChangedFrom="0" laneChangedTo="0"/>
        <edge id="-23519248" sampledSeconds="20246.81" traveltime="14.77" overlapTraveltime="15.74" density="21.16" laneDensity="7.05" occupancy="2.08" waitingTime="4655.00" timeLoss="10383.39" speed="5.15" speedRelative="0.46" departed="0" arrived="0" entered="1286" left="1286" laneChangedFrom="0" laneChangedTo="0"/>
        <edge id="-23519257" sampledSeconds="42.35" traveltime="10.21" overlapTraveltime="10.59" density="0.02" laneDensity="0.02" occupancy="0.01" waitingTime="0.00" timeLoss="3.61" speed="13.73" speedRelative="0.99" departed="0" arrived="0" entered="4" left="4" laneChangedFrom="0" laneChangedTo="0"/>
        <edge id="-23519479#0" sampledSeconds="2663.57" traveltime="4.12" overlapTraveltime="4.85" density="7.00" laneDensity="7.00" occupancy="2.18" waitingTime="41.00" timeLoss="1026.41" speed="7.13" speedRelative="0.51" departed="0" arrived="0" entered="551" left="551" laneChangedFrom="0" laneChangedTo="0"/>
        <edge id="-23519479#1" sampledSeconds="3406.67" traveltime="5.87" overlapTraveltime="6.18" density="4.21" laneDensity="4.21" occupancy="1.37" waitingTime="0.00" timeLoss="537.25" speed="11.22" speedRelative="0.81" departed="0" arrived="0" entered="551" left="551" laneChangedFrom="0" laneChangedTo="0"/>
        <edge id="-23519479#2" sampledSeconds="6997.26" traveltime="12.40" overlapTraveltime="12.70" density="4.16" laneDensity="4.16" occupancy="1.39" waitingTime="0.00" timeLoss="1186.05" speed="11.06" speedRelative="0.80" departed="0" arrived="0" entered="551" left="551" laneChangedFrom="0" laneChangedTo="0"/>
        <edge id="-23519483#0" sampledSeconds="5735.13" traveltime="3.95" overlapTraveltime="4.30" density="13.33" laneDensity="4.44" occupancy="1.25" waitingTime="0.00" timeLoss="1096.96" speed="8.88" speedRelative="0.80" departed="0" arrived="48" entered="1334" left="1286" laneChangedFrom="0" laneChangedTo="0"/>
        <edge id="-23519483#1" sampledSeconds="46495.74" traveltime="17.77" overlapTraveltime="18.18" density="96.01" laneDensity="32.00" occupancy="9.84" waitingTime="28904.00" timeLoss="36505.99" speed="2.34" speedRelative="0.21" departed="1383" arrived="1261" entered="1297" left="1419" laneChangedFrom="0" laneChangedTo="0"/>
        <edge id="-23519483#3" sampledSeconds="105684.37" traveltime="82.95" overlapTraveltime="83.38" density="85.93" laneDensity="28.64" occupancy="9.07" waitingTime="72916.97" timeLoss="93724.21" speed="1.24" speedRelative="0.11" departed="1309" arrived="0" entered="0" left="1309" laneChangedFrom="0" laneChangedTo="0"/>
        <edge id="-23519483#4" sampledSeconds="17195.83" traveltime="6.94" overlapTraveltime="7.26" density="22.93" laneDensity="7.64" occupancy="2.22" waitingTime="0.00" timeLoss="3373.76" speed="8.85" speedRelative="0.80" departed="0" arrived="2392" entered="2392" left="0" laneChangedFrom="0" laneChangedTo="0"/>
        <edge id="-23519582#1" sampledSeconds="137.32" traveltime="5.57" overlapTraveltime="5.74" density="0.16" laneDensity="0.08" occupancy="0.02" waitingTime="0.00" timeLoss="16.47" speed="12.23" speedRelative="0.88" departed="0" arrived="24" entered="24" left="0" laneChangedFrom="0" laneChangedTo="0"/>
        <edge id="-23519706#0" sampledSeconds="63390.04" traveltime="147.25" overlapTraveltime="148.77" density="44.36" laneDensity="44.36" occupancy="15.41" waitingTime="41211.00" timeLoss="57149.72" speed="0.81" speedRelative="0.10" departed="0" arrived="0" entered="426" left="426" laneChangedFrom="0" laneChangedTo="0"/>
        <edge id="-23519706#1" sampledSeconds="46483.24" traveltime="112.03" overlapTraveltime="112.76" density="27.63" laneDensity="27.63" occupancy="9.47" waitingTime="31199.00" timeLoss="39410.61" speed="1.25" speedRelative="0.15" departed="0" arrived="0" entered="412" left="412" laneChangedFrom="0" laneChangedTo="0"/>
        <edge id="-23519706#2" sampledSeconds="16861.05" traveltime="100.26" overlapTraveltime="101.04" density="6.71" laneDensity="6.71" occupancy="2.43" waitingTime="10605.00" timeLoss="12807.88" speed="2.06" speedRelative="0.25" departed="0" arrived="0" entered="167" left="167" laneChangedFrom="0" laneChangedTo="0"/>
        <edge id="-23519706#3" sampledSeconds="761.06" traveltime="4.08" overlapTraveltime="4.56" density="2.18" laneDensity="2.18" occupancy="0.67" waitingTime="0.00" timeLoss="138.66" speed="7.02" speedRelative="0.84" departed="0" arrived="0" entered="167" left="167" laneChangedFrom="0" laneChangedTo="0"/>
        <edge id="-23519706#4" sampledSeconds="926.38" traveltime="5.06" overlapTraveltime="5.55" density="2.11" laneDensity="2.11" occupancy="0.66" waitingTime="0.00" timeLoss="163.09" speed="7.07" speedRelative="0.85" departed="0" arrived="0" entered="167" left="167" laneChangedFrom="0" laneChangedTo="0"/>
        <edge id="-23519706#5" sampledSeconds="10769.08" traveltime="11.26" overlapTraveltime="11.83" density="12.13" laneDensity="12.13" occupancy="3.94" waitingTime="0.00" timeLoss="2406.39" speed="6.41" speedRelative="0.77" departed="0" arrived="0" entered="910" left="910" laneChangedFrom="0" laneChangedTo="0"/>
        <edge id="-23519706#6" sampledSeconds="1882.31" traveltime="1.56" overlapTraveltime="2.09" density="14.71" laneDensity="14.71" occupancy="3.75" waitingTime="0.00" timeLoss="348.35" speed="6.71" speedRelative="0.80" departed="0" arrived="0" entered="910" left="910" laneChangedFrom="0" laneChangedTo="0"/>
        <edge id="-23519706#7" sampledSeconds="951.86" traveltime="0.49" overlapTraveltime="1.15" density="31.42" laneDensity="31.42" occupancy="4.46" waitingTime="13.00" timeLoss="298.41" speed="5.65" speedRelative="0.68" departed="0" arrived="0" entered="910" left="910" laneChangedFrom="0" laneChangedTo="0"/>
        <edge id="-23519706#8" sampledSeconds="29893.97" traveltime="32.23" overlapTraveltime="32.85" density="12.18" laneDensity="4.06" occupancy="1.37" waitingTime="113.00" timeLoss="7382.68" speed="6.20" speedRelative="0.74" departed="0" arrived="0" entered="910" left="910" laneChangedFrom="0" laneChangedTo="0"/>
        <edge id="-23520484#0" sampledSeconds="7894.15" traveltime="9.37" overlapTraveltime="9.46" density="54.87" laneDensity="27.43" occupancy="7.87" waitingTime="4308.00" timeLoss="6380.32" speed="1.56" speedRelative="0.19" departed="1058" arrived="0" entered="0" left="1058" laneChangedFrom="0" laneChangedTo="0"/>
        <edge id="-23520619" sampledSeconds="3238.13" traveltime="5.79" overlapTraveltime="6.51" density="5.42" laneDensity="5.42" occupancy="1.70" waitingTime="0.00" timeLoss="1180.26" speed="8.00" speedRelative="0.58" departed="0" arrived="0" entered="498" left="498" laneChangedFrom="0" laneChangedTo="0"/>
        <edge id="-23520880#0" sampledSeconds="484564.95" traveltime="397.59" overlapTraveltime="398.17" density="106.75" laneDensity="53.37" occupancy="14.07" waitingTime="286818.00" timeLoss="429667.56" speed="0.94" speedRelative="0.11" departed="1226" arrived="0" entered="0" left="1226" laneChangedFrom="0" laneChangedTo="0"/>
        <edge id="-23520880#1" sampledSeconds="8244.18" traveltime="8.69" overlapTraveltime="9.17" density="11.89" laneDensity="11.89" occupancy="3.78" waitingTime="0.00" timeLoss="1700.14" speed="6.54" speedRelative="0.78" departed="0" arrived="913" entered="913" left="0" laneChangedFrom="0" laneChangedTo="0"/>
        <edge id="-23520880#2" sampledSeconds="11043.85" traveltime="16.74" overlapTraveltime="17.58" density="41.66" laneDensity="41.66" occupancy="13.96" waitingTime="7504.00" timeLoss="8992.74" speed="1.43" speedRelative="0.17" departed="0" arrived="0" entered="629" left="629" laneChangedFrom="0" laneChangedTo="0"/>
        <edge id="-23520886#0" sampledSeconds="8.40" traveltime="7.91" overlapTraveltime="8.40" density="0.01" laneDensity="0.00" occupancy="0.00" waitingTime="0.00" timeLoss="0.78" speed="9.55" speedRelative="0.86" departed="0" arrived="0" entered="1" left="1" laneChangedFrom="0" laneChangedTo="0"/>
        <edge id="-23521401#0" sampledSeconds="270412.57" traveltime="422.42" overlapTraveltime="424.45" density="73.97" laneDensity="36.99" occupancy="13.09" waitingTime="175872.20" timeLoss="252879.18" speed="0.71" speedRelative="0.06" departed="444" arrived="0" entered="198" left="642" laneChangedFrom="0" laneChangedTo="0"/>
        <edge id="-23521401#1" sampledSeconds="3281.43" traveltime="18.60" overlapTraveltime="20.61" density="28.04" laneDensity="28.04" occupancy="12.31" waitingTime="2565.00" timeLoss="3074.07" speed="0.69" speedRelative="0.06" departed="0" arrived="0" entered="165" left="165" laneChangedFrom="0" laneChangedTo="0"/>
        <edge id="-23521696#2" sampledSeconds="14220.84" traveltime="15.64" overlapTraveltime="16.12" density="11.03" laneDensity="3.68" occupancy="1.22" waitingTime="0.00" timeLoss="2568.52" speed="6.73" speedRelative="0.81" departed="0" arrived="890" entered="890" left="0" laneChangedFrom="0" laneChangedTo="0"/>
        <edge id="-23521917#5" sampledSeconds="5150.09" traveltime="12.70" overlapTraveltime="13.05" density="3.61" laneDensity="1.80" occupancy="0.58" waitingTime="0.00" timeLoss="839.05" speed="9.18" speedRelative="0.83" departed="0" arrived="397" entered="397" left="0" laneChangedFrom="0" laneChangedTo="0"/>
        <edge id="-23522098#0" sampledSeconds="29533.22" traveltime="57.48" overlapTraveltime="57.89" density="47.95" laneDensity="47.95" occupancy="14.40" waitingTime="21523.00" timeLoss="27361.29" speed="0.92" speedRelative="0.07" departed="542" arrived="0" entered="0" left="542" laneChangedFrom="0" laneChangedTo="0"/>
        <edge id="-23540252" sampledSeconds="29199.11" traveltime="46.55" overlapTraveltime="47.15" density="15.71" laneDensity="7.86" occupancy="2.72" waitingTime="17566.00" timeLoss="22072.76" speed="3.29" speedRelative="0.24" departed="0" arrived="397" entered="621" left="224" laneChangedFrom="0" laneChangedTo="0"/>
        <edge id="-23540254" sampledSeconds="6461.66" traveltime="4.61" overlapTraveltime="5.03" density="13.48" laneDensity="4.49" occupancy="1.28" waitingTime="168.00" timeLoss="1513.77" speed="8.40" speedRelative="0.76" departed="0" arrived="0" entered="1286" left="1286" laneChangedFrom="0" laneChangedTo="0"/>
        <edge id="-25055326#0" sampledSeconds="8.42" traveltime="1.85" overlapTraveltime="2.10" density="0.03" laneDensity="0.03" occupancy="0.01" waitingTime="0.00" timeLoss="0.81" speed="13.85" speedRelative="1.00" departed="0" arrived="0" entered="4" left="4" laneChangedFrom="0" laneChangedTo="0"/>
        <edge id="-25055326#1" sampledSeconds="26.05" traveltime="6.27" overlapTraveltime="6.51" density="0.02" laneDensity="0.02" occupancy="0.01" waitingTime="0.00" timeLoss="1.79" speed="14.29" speedRelative="1.03" departed="0" arrived="0" entered="4" left="4" laneChangedFrom="0" laneChangedTo="0"/>
        <edge id="-252223483#1" sampledSeconds="16652.50" traveltime="22.44" overlapTraveltime="22.84" density="6.48" laneDensity="1.62" occupancy="0.63" waitingTime="0.00" timeLoss="2527.63" speed="9.35" speedRelative="0.84" departed="0" arrived="732" entered="732" left="0" laneChangedFrom="389" laneChangedTo="389"/>
        <edge id="-252223483#12" sampledSeconds="100355.74" traveltime="107.52" overlapTraveltime="109.21" density="68.96" laneDensity="17.24" occupancy="6.41" waitingTime="68731.00" timeLoss="90050.39" speed="1.12" speedRelative="0.10" departed="949" arrived="0" entered="0" left="949" laneChangedFrom="695" laneChangedTo="695"/>
        <edge id="-252223483#2" sampledSeconds="19718.34" traveltime="26.47" overlapTraveltime="26.94" density="7.06" laneDensity="1.76" occupancy="0.70" waitingTime="0.00" timeLoss="4319.94" speed="8.61" speedRelative="0.77" departed="0" arrived="0" entered="732" left="732" laneChangedFrom="0" laneChangedTo="0"/>
        <edge id="-252223483#3" sampledSeconds="23921.84" traveltime="32.22" overlapTraveltime="32.68" density="6.93" laneDensity="1.73" occupancy="0.68" waitingTime="1.00" timeLoss="4976.09" speed="8.73" speedRelative="0.79" departed="0" arrived="0" entered="732" left="732" laneChangedFrom="36" laneChangedTo="36"/>
        <edge id="-252223483#4" sampledSeconds="4263.04" traveltime="5.37" overlapTraveltime="5.83" density="7.26" laneDensity="1.81" occupancy="0.67" waitingTime="0.00" timeLoss="817.09" speed="8.91" speedRelative="0.80" departed="0" arrived="0" entered="732" left="732" laneChangedFrom="0" laneChangedTo="0"/>
        <edge id="-252223483#5" sampledSeconds="1618.27" traveltime="1.76" overlapTraveltime="2.23" density="8.31" laneDensity="2.08" occupancy="0.66" waitingTime="0.00" timeLoss="298.33" speed="8.99" speedRelative="0.81" departed="0" arrived="0" entered="732" left="732" laneChangedFrom="0" laneChangedTo="0"/>
        <edge id="-252223483#6" sampledSeconds="12271.32" traveltime="16.23" overlapTraveltime="16.67" density="6.83" laneDensity="1.71" occupancy="0.66" waitingTime="0.00" timeLoss="2221.81" speed="9.03" speedRelative="0.81" departed="0" arrived="0" entered="736" left="736" laneChangedFrom="0" laneChangedTo="0"/>
        <edge id="-252223483#7" sampledSeconds="1516.41" traveltime="1.63" overlapTraveltime="2.08" density="8.18" laneDensity="2.04" occupancy="0.64" waitingTime="0.00" timeLoss="240.18" speed="9.28" speedRelative="0.84" departed="0" arrived="0" entered="736" left="736" laneChangedFrom="0" laneChangedTo="0"/>
        <edge id="-252223483#8" sampledSeconds="4866.47" traveltime="6.18" overlapTraveltime="6.62" density="6.90" laneDensity="1.72" occupancy="0.64" waitingTime="0.00" timeLoss="761.00" speed="9.30" speedRelative="0.84" departed="0" arrived="0" entered="736" left="736" laneChangedFrom="0" laneChangedTo="0"/>
        <edge id="-252223483#9" sampledSeconds="5147.73" traveltime="6.48" overlapTraveltime="7.00" density="7.78" laneDensity="1.94" occupancy="0.73" waitingTime="3.00" timeLoss="1278.53" speed="8.29" speedRelative="0.75" departed="0" arrived="0" entered="736" left="736" laneChangedFrom="134" laneChangedTo="134"/>
        <edge id="-282035194" sampledSeconds="48582.78" traveltime="39.10" overlapTraveltime="39.61" density="42.54" laneDensity="21.27" occupancy="6.74" waitingTime="28159.66" timeLoss="39804.76" speed="2.43" speedRelative="0.18" departed="637" arrived="614" entered="615" left="638" laneChangedFrom="0" laneChangedTo="0"/>
        <edge id="-596568238#0" sampledSeconds="1402.75" traveltime="4.28" overlapTraveltime="4.54" density="2.86" laneDensity="0.95" occupancy="0.23" waitingTime="0.00" timeLoss="202.06" speed="9.36" speedRelative="0.84" departed="0" arrived="312" entered="312" left="0" laneChangedFrom="0" laneChangedTo="0"/>
        <edge id="-600501527#2" sampledSeconds="15.76" traveltime="3.30" overlapTraveltime="3.94" density="0.08" laneDensity="0.08" occupancy="0.02" waitingTime="0.00" timeLoss="2.99" speed="5.16" speedRelative="0.93" departed="0" arrived="0" entered="4" left="4" laneChangedFrom="0" laneChangedTo="0"/>
        <edge id="-724187422#0" sampledSeconds="2451.70" traveltime="3.12" overlapTraveltime="3.45" density="7.57" laneDensity="2.52" occupancy="0.64" waitingTime="0.00" timeLoss="554.18" speed="8.47" speedRelative="0.76" departed="0" arrived="0" entered="711" left="711" laneChangedFrom="0" laneChangedTo="0"/>
        <edge id="-724187422#1" sampledSeconds="21838.66" traveltime="34.13" overlapTraveltime="34.48" density="15.98" laneDensity="5.33" occupancy="1.50" waitingTime="10614.00" timeLoss="15238.03" speed="3.31" speedRelative="0.30" departed="650" arrived="0" entered="0" left="650" laneChangedFrom="0" laneChangedTo="0"/>
        <edge id="-836685800#0" sampledSeconds="9252.84" traveltime="6.61" overlapTraveltime="7.00" density="12.96" laneDensity="4.32" occupancy="1.37" waitingTime="0.00" timeLoss="1851.61" speed="8.81" speedRelative="0.79" departed="0" arrived="0" entered="1323" left="1323" laneChangedFrom="0" laneChangedTo="0"/>
        <edge id="-836685800#1" sampledSeconds="40716.18" traveltime="34.13" overlapTraveltime="34.47" density="49.24" laneDensity="16.41" occupancy="5.19" waitingTime="24278.00" timeLoss="33094.12" speed="2.05" speedRelative="0.18" departed="1239" arrived="0" entered="0" left="1239" laneChangedFrom="0" laneChangedTo="0"/>
        <edge id="-836685805#1" sampledSeconds="284546.25" traveltime="201.28" overlapTraveltime="201.68" density="99.64" laneDensity="33.21" occupancy="10.14" waitingTime="206534.00" timeLoss="254280.29" speed="1.17" speedRelative="0.11" departed="1430" arrived="0" entered="0" left="1430" laneChangedFrom="0" laneChangedTo="0"/>
        <edge id="-836685805#2" sampledSeconds="9656.77" traveltime="7.03" overlapTraveltime="7.37" density="12.55" laneDensity="4.18" occupancy="1.34" waitingTime="0.00" timeLoss="1792.92" speed="8.97" speedRelative="0.81" departed="0" arrived="1323" entered="1323" left="0" laneChangedFrom="0" laneChangedTo="0"/>
        <edge id="-836685805#3" sampledSeconds="11228.53" traveltime="8.09" overlapTraveltime="8.49" density="13.20" laneDensity="4.40" occupancy="1.41" waitingTime="0.00" timeLoss="2489.65" speed="8.57" speedRelative="0.77" departed="0" arrived="0" entered="1323" left="1323" laneChangedFrom="0" laneChangedTo="0"/>
        <edge id="-836685805#4" sampledSeconds="8297.45" traveltime="5.88" overlapTraveltime="6.28" density="13.22" laneDensity="4.41" occupancy="1.39" waitingTime="0.00" timeLoss="1741.11" speed="8.70" speedRelative="0.78" departed="0" arrived="0" entered="1323" left="1323" laneChangedFrom="0" laneChangedTo="0"/>
        <edge id="-902581873" sampledSeconds="346.11" traveltime="8.73" overlapTraveltime="10.55" density="0.53" laneDensity="0.53" occupancy="0.22" waitingTime="65.00" timeLoss="183.86" speed="5.53" speedRelative="0.40" departed="0" arrived="0" entered="33" left="33" laneChangedFrom="0" laneChangedTo="0"/>
        <edge id="23518777#0" sampledSeconds="8.68" traveltime="7.99" overlapTraveltime="8.68" density="0.01" laneDensity="0.01" occupancy="0.01" waitingTime="0.00" timeLoss="0.88" speed="7.09" speedRelative="0.85" departed="0" arrived="0" entered="1" left="1" laneChangedFrom="0" laneChangedTo="0"/>
        <edge id="23518777#1" sampledSeconds="10.84" traveltime="10.16" overlapTraveltime="10.84" density="0.01" laneDensity="0.01" occupancy="0.01" waitingTime="0.00" timeLoss="1.04" speed="7.14" speedRelative="0.86" departed="0" arrived="0" entered="1" left="1" laneChangedFrom="0" laneChangedTo="0"/>
        <edge id="23518777#2" sampledSeconds="5.02" traveltime="4.38" overlapTraveltime="5.02" density="0.01" laneDensity="0.01" occupancy="0.01" waitingTime="0.00" timeLoss="0.27" speed="7.47" speedRelative="0.90" departed="0" arrived="0" entered="1" left="1" laneChangedFrom="0" laneChangedTo="0"/>
        <edge id="23518777#3" sampledSeconds="6.17" traveltime="6.15" overlapTraveltime="6.85" density="0.01" laneDensity="0.01" occupancy="0.01" waitingTime="0.00" timeLoss="0.55" speed="7.19" speedRelative="0.86" departed="0" arrived="1" entered="1" left="0" laneChangedFrom="0" laneChangedTo="0"/>
        <edge id="23518904" sampledSeconds="32189.50" traveltime="15.30" overlapTraveltime="16.98" density="67.90" laneDensity="22.63" occupancy="6.63" waitingTime="17489.00" timeLoss="24985.19" speed="2.47" speedRelative="0.22" departed="0" arrived="0" entered="1899" left="1899" laneChangedFrom="0" laneChangedTo="0"/>
        <edge id="23518959#1" sampledSeconds="2326.51" traveltime="11.51" overlapTraveltime="12.11" density="3.75" laneDensity="3.75" occupancy="1.16" waitingTime="0.00" timeLoss="602.63" speed="4.45" speedRelative="0.80" departed="0" arrived="0" entered="192" left="192" laneChangedFrom="0" laneChangedTo="0"/>
        <edge id="23518959#4" sampledSeconds="4159.49" traveltime="16.12" overlapTraveltime="16.96" density="11.00" laneDensity="11.00" occupancy="3.63" waitingTime="1750.00" timeLoss="2624.01" speed="2.03" speedRelative="0.36" departed="0" arrived="0" entered="245" left="245" laneChangedFrom="0" laneChangedTo="0"/>
        <edge id="23519061#1" sampledSeconds="2054.88" traveltime="10.08" overlapTraveltime="10.74" density="2.46" laneDensity="2.46" occupancy="0.83" waitingTime="429.00" timeLoss="1047.90" speed="6.69" speedRelative="0.48" departed="0" arrived="0" entered="192" left="192" laneChangedFrom="0" laneChangedTo="0"/>
        <edge id="23519061#2" sampledSeconds="42.86" traveltime="10.43" overlapTraveltime="10.72" density="0.03" laneDensity="0.03" occupancy="0.01" waitingTime="0.00" timeLoss="4.72" speed="12.90" speedRelative="0.93" departed="0" arrived="0" entered="4" left="4" laneChangedFrom="0" laneChangedTo="0"/>
        <edge id="23519061#3" sampledSeconds="41.44" traveltime="9.54" overlapTraveltime="10.47" density="0.09" laneDensity="0.09" occupancy="0.04" waitingTime="19.00" timeLoss="29.65" speed="3.81" speedRelative="0.27" departed="0" arrived="0" entered="4" left="4" laneChangedFrom="0" laneChangedTo="0"/>
        <edge id="23519080" sampledSeconds="1070.26" traveltime="29.57" overlapTraveltime="29.75" density="0.24" laneDensity="0.12" occupancy="0.03" waitingTime="0.00" timeLoss="134.64" speed="12.20" speedRelative="0.88" departed="0" arrived="36" entered="36" left="0" laneChangedFrom="0" laneChangedTo="0"/>
        <edge id="23519164" sampledSeconds="28335.52" traveltime="14.76" overlapTraveltime="15.20" density="36.98" laneDensity="12.33" occupancy="3.70" waitingTime="10407.00" timeLoss="17237.47" speed="4.32" speedRelative="0.39" departed="0" arrived="0" entered="1863" left="1863" laneChangedFrom="0" laneChangedTo="0"/>
        <edge id="23519248" sampledSeconds="46526.94" traveltime="23.55" overlapTraveltime="24.51" density="48.79" laneDensity="16.26" occupancy="5.02" waitingTime="19174.00" timeLoss="32584.68" speed="3.30" speedRelative="0.30" departed="0" arrived="0" entered="1899" left="1899" laneChangedFrom="0" laneChangedTo="0"/>
        <edge id="23519339" sampledSeconds="135527.21" traveltime="181.51" overlapTraveltime="182.03" density="72.91" laneDensity="36.45" occupancy="11.41" waitingTime="97671.00" timeLoss="127041.48" speed="0.85" speedRelative="0.06" departed="530" arrived="0" entered="225" left="755" laneChangedFrom="0" laneChangedTo="0"/>
        <edge id="23519391#1" sampledSeconds="23.10" traveltime="5.31" overlapTraveltime="5.79" density="0.04" laneDensity="0.04" occupancy="0.01" waitingTime="0.00" timeLoss="7.97" speed="9.41" speedRelative="0.68" departed="0" arrived="0" entered="4" left="4" laneChangedFrom="0" laneChangedTo="0"/>
        <edge id="23519463" sampledSeconds="19.06" traveltime="4.52" overlapTraveltime="4.76" density="0.02" laneDensity="0.02" occupancy="0.01" waitingTime="0.00" timeLoss="1.15" speed="14.42" speedRelative="1.04" departed="0" arrived="0" entered="4" left="4" laneChangedFrom="0" laneChangedTo="0"/>
        <edge id="23519483#0" sampledSeconds="52518.49" traveltime="17.38" overlapTraveltime="17.82" density="122.09" laneDensity="40.70" occupancy="11.49" waitingTime="34422.75" timeLoss="42345.48" speed="2.13" speedRelative="0.19" departed="1165" arrived="1862" entered="1899" left="1202" laneChangedFrom="0" laneChangedTo="0"/>
        <edge id="23519483#1" sampledSeconds="32574.25" traveltime="9.18" overlapTraveltime="9.54" density="67.27" laneDensity="22.42" occupancy="6.23" waitingTime="11187.00" timeLoss="19439.01" speed="4.44" speedRelative="0.40" departed="1165" arrived="2367" entered="2368" left="1166" laneChangedFrom="0" laneChangedTo="0"/>
        <edge id="23519483#3" sampledSeconds="13638.90" traveltime="11.10" overlapTraveltime="11.40" density="11.10" laneDensity="3.70" occupancy="1.07" waitingTime="3.00" timeLoss="2434.46" speed="9.04" speedRelative="0.81" departed="0" arrived="1201" entered="1202" left="1" laneChangedFrom="0" laneChangedTo="0"/>
        <edge id="23519483#4" sampledSeconds="60134.52" traveltime="38.75" overlapTraveltime="39.04" density="80.20" laneDensity="26.73" occupancy="8.35" waitingTime="42212.00" timeLoss="51086.49" speed="1.65" speedRelative="0.15" departed="1621" arrived="0" entered="1" left="1622" laneChangedFrom="0" laneChangedTo="0"/>