<?xml version="1.0" encoding="UTF-8"?>

<!-- generated on 2024-08-24 01:28:38 by Eclipse SUMO sumo Version 1.18.0
<configuration xmlns:xsi="http://www.w3.org/2001/XMLSchema-instance" xsi:noNamespaceSchemaLocation="http://sumo.dlr.de/xsd/sumoConfiguration.xsd">

    <input>
        <net-file value="osm.net.xml.gz"/>
        <route-files value="2021route.rou.xml, adnutoadnu.rou.xml"/>
        <additional-files value="osm.poly.xml.gz"/>
    </input>

    <output>
        <edgedata-output value="StaticEdgeData2021.xml"/>
    </output>

    <processing>
        <ignore-route-errors value="true"/>
        <tls.actuated.show-detectors value="true"/>
    </processing>

    <routing>
        <device.rerouting.adaptation-steps value="18"/>
        <device.rerouting.adaptation-interval value="10"/>
    </routing>

    <report>
        <verbose value="true"/>
        <duration-log.statistics value="true"/>
        <no-step-log value="true"/>
    </report>

    <gui_only>
        <gui-settings-file value="osm.view.xml"/>
    </gui_only>

</configuration>
-->

<meandata xmlns:xsi="http://www.w3.org/2001/XMLSchema-instance" xsi:noNamespaceSchemaLocation="http://sumo.dlr.de/xsd/meandata_file.xsd">
    <interval begin="0.00" end="13457.00" id="DEFAULT_EDGEDATA">
        <edge id="-23518777#0" sampledSeconds="8.74" traveltime="7.95" overlapTraveltime="8.74" density="0.01" laneDensity="0.01" occupancy="0.01" waitingTime="0.00" timeLoss="1.08" speed="7.05" speedRelative="0.85" departed="0" arrived="0" entered="1" left="1" laneChangedFrom="0" laneChangedTo="0"/>
        <edge id="-23518777#1" sampledSeconds="10.42" traveltime="9.75" overlapTraveltime="10.42" density="0.01" laneDensity="0.01" occupancy="0.01" waitingTime="0.00" timeLoss="0.85" speed="7.43" speedRelative="0.89" departed="0" arrived="0" entered="1" left="1" laneChangedFrom="0" laneChangedTo="0"/>
        <edge id="-23518777#2" sampledSeconds="4.71" traveltime="4.05" overlapTraveltime="4.71" density="0.01" laneDensity="0.01" occupancy="0.00" waitingTime="0.00" timeLoss="0.07" speed="7.97" speedRelative="0.96" departed="0" arrived="0" entered="1" left="1" laneChangedFrom="0" laneChangedTo="0"/>
        <edge id="-23518777#3" sampledSeconds="7.47" traveltime="7.66" overlapTraveltime="8.33" density="0.01" laneDensity="0.01" occupancy="0.01" waitingTime="0.00" timeLoss="2.01" speed="5.91" speedRelative="0.71" departed="1" arrived="0" entered="0" left="1" laneChangedFrom="0" laneChangedTo="0"/>
        <edge id="-23518959#3" sampledSeconds="3382.22" traveltime="17.32" overlapTraveltime="17.98" density="3.76" laneDensity="3.76" occupancy="1.22" waitingTime="0.00" timeLoss="985.01" speed="3.91" speedRelative="0.70" departed="0" arrived="0" entered="188" left="188" laneChangedFrom="0" laneChangedTo="0"/>
        <edge id="-23518974#0" sampledSeconds="800.81" traveltime="4.72" overlapTraveltime="5.35" density="1.30" laneDensity="1.30" occupancy="0.42" waitingTime="0.00" timeLoss="215.59" speed="9.21" speedRelative="0.66" departed="0" arrived="0" entered="150" left="150" laneChangedFrom="0" laneChangedTo="0"/>
        <edge id="-23518974#1" sampledSeconds="449.77" traveltime="2.72" overlapTraveltime="3.01" density="1.12" laneDensity="1.12" occupancy="0.35" waitingTime="0.00" timeLoss="96.49" speed="11.11" speedRelative="0.80" departed="0" arrived="0" entered="150" left="150" laneChangedFrom="0" laneChangedTo="0"/>
        <edge id="-23518978#0" sampledSeconds="1480.51" traveltime="4.28" overlapTraveltime="4.57" density="2.31" laneDensity="2.31" occupancy="0.74" waitingTime="0.00" timeLoss="272.98" speed="11.17" speedRelative="0.80" departed="0" arrived="0" entered="324" left="324" laneChangedFrom="0" laneChangedTo="0"/>
        <edge id="-23518978#1" sampledSeconds="790.74" traveltime="3.86" overlapTraveltime="4.21" density="1.39" laneDensity="1.39" occupancy="0.44" waitingTime="0.00" timeLoss="140.17" speed="10.88" speedRelative="0.78" departed="0" arrived="0" entered="188" left="188" laneChangedFrom="0" laneChangedTo="0"/>
        <edge id="-23518978#2" sampledSeconds="1111.04" traveltime="5.61" overlapTraveltime="5.91" density="1.36" laneDensity="1.36" occupancy="0.44" waitingTime="0.00" timeLoss="206.74" speed="10.87" speedRelative="0.78" departed="0" arrived="0" entered="188" left="188" laneChangedFrom="0" laneChangedTo="0"/>
        <edge id="-23519080" sampledSeconds="9796.88" traveltime="62.32" overlapTraveltime="63.20" density="2.02" laneDensity="1.01" occupancy="0.22" waitingTime="4117.00" timeLoss="5651.51" speed="5.74" speedRelative="0.41" departed="156" arrived="0" entered="0" left="156" laneChangedFrom="0" laneChangedTo="0"/>
        <edge id="-23519229#0" sampledSeconds="2221.25" traveltime="14.12" overlapTraveltime="14.81" density="1.01" laneDensity="1.01" occupancy="0.34" waitingTime="0.00" timeLoss="388.99" speed="11.25" speedRelative="0.81" departed="0" arrived="0" entered="150" left="150" laneChangedFrom="0" laneChangedTo="0"/>
        <edge id="-23519229#1" sampledSeconds="516.54" traveltime="3.17" overlapTraveltime="3.45" density="0.97" laneDensity="0.97" occupancy="0.31" waitingTime="0.00" timeLoss="59.09" speed="12.52" speedRelative="0.90" departed="0" arrived="0" entered="150" left="150" laneChangedFrom="0" laneChangedTo="0"/>
        <edge id="-23519229#2" sampledSeconds="2347.67" traveltime="3.06" overlapTraveltime="3.58" density="6.55" laneDensity="6.55" occupancy="1.94" waitingTime="0.00" timeLoss="716.13" speed="8.40" speedRelative="0.61" departed="0" arrived="0" entered="658" left="658" laneChangedFrom="0" laneChangedTo="0"/>
        <edge id="-23519248" sampledSeconds="18325.44" traveltime="12.87" overlapTraveltime="13.74" density="17.46" laneDensity="5.82" occupancy="1.70" waitingTime="2648.00" timeLoss="8146.22" speed="5.90" speedRelative="0.53" departed="0" arrived="0" entered="1334" left="1334" laneChangedFrom="0" laneChangedTo="0"/>
        <edge id="-23519479#0" sampledSeconds="3013.56" traveltime="5.22" overlapTraveltime="5.95" density="7.22" laneDensity="7.22" occupancy="2.24" waitingTime="546.00" timeLoss="1518.04" speed="5.79" speedRelative="0.42" departed="0" arrived="0" entered="508" left="508" laneChangedFrom="0" laneChangedTo="0"/>
        <edge id="-23519479#1" sampledSeconds="3178.00" traveltime="5.95" overlapTraveltime="6.26" density="3.58" laneDensity="3.58" occupancy="1.13" waitingTime="13.00" timeLoss="561.32" speed="11.07" speedRelative="0.80" departed="0" arrived="0" entered="508" left="508" laneChangedFrom="0" laneChangedTo="0"/>
        <edge id="-23519479#2" sampledSeconds="6494.24" traveltime="12.49" overlapTraveltime="12.79" density="3.52" laneDensity="3.52" occupancy="1.14" waitingTime="0.00" timeLoss="1190.25" speed="10.98" speedRelative="0.79" departed="0" arrived="0" entered="508" left="508" laneChangedFrom="0" laneChangedTo="0"/>
        <edge id="-23519483#0" sampledSeconds="6788.01" traveltime="4.00" overlapTraveltime="4.36" density="14.38" laneDensity="4.79" occupancy="1.36" waitingTime="0.00" timeLoss="1384.92" speed="8.76" speedRelative="0.79" departed="0" arrived="228" entered="1562" left="1334" laneChangedFrom="0" laneChangedTo="0"/>
        <edge id="-23519483#1" sampledSeconds="49364.06" traveltime="18.54" overlapTraveltime="18.96" density="92.91" laneDensity="30.97" occupancy="9.41" waitingTime="31335.00" timeLoss="39293.49" speed="2.25" speedRelative="0.20" departed="1406" arrived="1285" entered="1321" left="1442" laneChangedFrom="0" laneChangedTo="0"/>
        <edge id="-23519483#3" sampledSeconds="121749.67" traveltime="91.21" overlapTraveltime="91.70" density="90.23" laneDensity="30.08" occupancy="9.04" waitingTime="85103.72" timeLoss="109357.48" speed="1.13" speedRelative="0.10" departed="1369" arrived="0" entered="0" left="1369" laneChangedFrom="0" laneChangedTo="0"/>
        <edge id="-23519483#4" sampledSeconds="22762.79" traveltime="6.93" overlapTraveltime="7.24" density="27.67" laneDensity="9.22" occupancy="2.63" waitingTime="0.00" timeLoss="4392.27" speed="8.86" speedRelative="0.80" departed="0" arrived="3171" entered="3171" left="0" laneChangedFrom="0" laneChangedTo="0"/>
        <edge id="-23519582#1" sampledSeconds="555.51" traveltime="5.62" overlapTraveltime="5.80" density="0.61" laneDensity="0.30" occupancy="0.06" waitingTime="0.00" timeLoss="67.93" speed="12.09" speedRelative="0.87" departed="0" arrived="96" entered="96" left="0" laneChangedFrom="0" laneChangedTo="0"/>
        <edge id="-23519706#0" sampledSeconds="53357.20" traveltime="99.43" overlapTraveltime="100.97" density="34.04" laneDensity="34.04" occupancy="11.54" waitingTime="31988.00" timeLoss="45693.21" speed="1.19" speedRelative="0.14" departed="0" arrived="0" entered="530" left="530" laneChangedFrom="0" laneChangedTo="0" teleported="1"/>
        <edge id="-23519706#1" sampledSeconds="42710.36" traveltime="84.05" overlapTraveltime="84.80" density="23.14" laneDensity="23.14" occupancy="7.76" waitingTime="26264.03" timeLoss="34147.65" speed="1.66" speedRelative="0.20" departed="0" arrived="0" entered="504" left="504" laneChangedFrom="0" laneChangedTo="0" teleported="1"/>
        <edge id="-23519706#2" sampledSeconds="6083.40" traveltime="32.48" overlapTraveltime="33.05" density="2.21" laneDensity="2.21" occupancy="0.72" waitingTime="523.00" timeLoss="1621.31" speed="6.30" speedRelative="0.76" departed="0" arrived="0" entered="184" left="184" laneChangedFrom="0" laneChangedTo="0"/>
        <edge id="-23519706#3" sampledSeconds="827.37" traveltime="4.03" overlapTraveltime="4.50" density="2.16" laneDensity="2.16" occupancy="0.64" waitingTime="0.00" timeLoss="144.21" speed="7.09" speedRelative="0.85" departed="0" arrived="0" entered="184" left="184" laneChangedFrom="0" laneChangedTo="0"/>
        <edge id="-23519706#4" sampledSeconds="1019.50" traveltime="5.08" overlapTraveltime="5.54" density="2.12" laneDensity="2.12" occupancy="0.64" waitingTime="0.00" timeLoss="181.15" speed="7.06" speedRelative="0.85" departed="0" arrived="0" entered="184" left="184" laneChangedFrom="0" laneChangedTo="0"/>
        <edge id="-23519706#5" sampledSeconds="9898.48" traveltime="11.20" overlapTraveltime="11.76" density="10.16" laneDensity="10.16" occupancy="3.24" waitingTime="0.00" timeLoss="2183.03" speed="6.44" speedRelative="0.77" departed="0" arrived="0" entered="842" left="842" laneChangedFrom="0" laneChangedTo="0"/>
        <edge id="-23519706#6" sampledSeconds="1726.54" traveltime="1.56" overlapTraveltime="2.07" density="12.30" laneDensity="12.30" occupancy="3.09" waitingTime="0.00" timeLoss="317.82" speed="6.73" speedRelative="0.81" departed="0" arrived="0" entered="842" left="842" laneChangedFrom="0" laneChangedTo="0"/>
        <edge id="-23519706#7" sampledSeconds="857.50" traveltime="0.48" overlapTraveltime="1.12" density="25.80" laneDensity="25.80" occupancy="3.66" waitingTime="18.00" timeLoss="261.80" speed="5.73" speedRelative="0.69" departed="0" arrived="0" entered="842" left="842" laneChangedFrom="0" laneChangedTo="0"/>
        <edge id="-23519706#8" sampledSeconds="27797.60" traveltime="32.40" overlapTraveltime="33.01" density="10.32" laneDensity="3.44" occupancy="1.14" waitingTime="118.00" timeLoss="7019.26" speed="6.16" speedRelative="0.74" departed="0" arrived="0" entered="842" left="842" laneChangedFrom="0" laneChangedTo="0"/>
        <edge id="-23520484#0" sampledSeconds="12665.54" traveltime="9.79" overlapTraveltime="9.79" density="80.24" laneDensity="40.12" occupancy="11.26" waitingTime="7065.00" timeLoss="10324.46" speed="1.50" speedRelative="0.18" departed="1633" arrived="0" entered="0" left="1633" laneChangedFrom="0" laneChangedTo="0"/>
        <edge id="-23520619" sampledSeconds="2098.04" traveltime="5.74" overlapTraveltime="6.49" density="3.20" laneDensity="3.20" occupancy="1.03" waitingTime="0.00" timeLoss="746.67" speed="8.05" speedRelative="0.58" departed="0" arrived="0" entered="324" left="324" laneChangedFrom="0" laneChangedTo="0"/>
        <edge id="-23520880#0" sampledSeconds="552317.80" traveltime="359.19" overlapTraveltime="359.78" density="110.90" laneDensity="55.45" occupancy="16.62" waitingTime="327177.00" timeLoss="482924.82" speed="1.04" speedRelative="0.12" departed="1548" arrived="0" entered="0" left="1548" laneChangedFrom="0" laneChangedTo="0"/>
        <edge id="-23520880#1" sampledSeconds="7580.14" traveltime="8.67" overlapTraveltime="9.14" density="9.96" laneDensity="9.96" occupancy="3.11" waitingTime="0.00" timeLoss="1559.86" speed="6.55" speedRelative="0.79" departed="0" arrived="841" entered="841" left="0" laneChangedFrom="0" laneChangedTo="0"/>
        <edge id="-23520880#2" sampledSeconds="9792.92" traveltime="12.82" overlapTraveltime="13.68" density="33.68" laneDensity="33.68" occupancy="10.86" waitingTime="6214.00" timeLoss="7475.85" speed="1.84" speedRelative="0.22" departed="0" arrived="0" entered="723" left="723" laneChangedFrom="0" laneChangedTo="0"/>
        <edge id="-23520886#0" sampledSeconds="8.57" traveltime="8.03" overlapTraveltime="8.57" density="0.01" laneDensity="0.00" occupancy="0.00" waitingTime="0.00" timeLoss="1.14" speed="9.36" speedRelative="0.84" departed="0" arrived="0" entered="1" left="1" laneChangedFrom="0" laneChangedTo="0"/>
        <edge id="-23521401#0" sampledSeconds="326266.93" traveltime="462.44" overlapTraveltime="463.98" density="81.35" laneDensity="40.68" occupancy="13.37" waitingTime="218575.88" timeLoss="306972.15" speed="0.65" speedRelative="0.06" departed="469" arrived="0" entered="239" left="708" laneChangedFrom="0" laneChangedTo="0"/>
        <edge id="-23521401#1" sampledSeconds="3608.24" traveltime="16.57" overlapTraveltime="18.22" density="28.11" laneDensity="28.11" occupancy="11.04" waitingTime="2783.00" timeLoss="3359.64" speed="0.76" speedRelative="0.07" departed="0" arrived="0" entered="204" left="204" laneChangedFrom="0" laneChangedTo="0"/>
        <edge id="-23521696#2" sampledSeconds="17797.41" traveltime="15.94" overlapTraveltime="16.42" density="12.58" laneDensity="4.19" occupancy="1.39" waitingTime="0.00" timeLoss="3475.26" speed="6.61" speedRelative="0.79" departed="0" arrived="1094" entered="1094" left="0" laneChangedFrom="0" laneChangedTo="0"/>
        <edge id="-23521917#5" sampledSeconds="7079.23" traveltime="12.53" overlapTraveltime="12.87" density="4.52" laneDensity="2.26" occupancy="0.73" waitingTime="0.00" timeLoss="1090.28" speed="9.31" speedRelative="0.84" departed="0" arrived="553" entered="553" left="0" laneChangedFrom="0" laneChangedTo="0"/>
        <edge id="-23522098#0" sampledSeconds="29505.63" traveltime="57.49" overlapTraveltime="57.93" density="43.67" laneDensity="43.67" occupancy="13.93" waitingTime="21305.00" timeLoss="27298.89" speed="0.92" speedRelative="0.07" departed="543" arrived="0" entered="0" left="543" laneChangedFrom="0" laneChangedTo="0"/>
        <edge id="-23540252" sampledSeconds="19706.27" traveltime="28.16" overlapTraveltime="28.65" density="9.67" laneDensity="4.83" occupancy="1.63" waitingTime="8999.00" timeLoss="11830.20" speed="5.41" speedRelative="0.39" departed="0" arrived="472" entered="690" left="218" laneChangedFrom="0" laneChangedTo="0"/>
        <edge id="-23540254" sampledSeconds="6640.93" traveltime="4.57" overlapTraveltime="4.98" density="12.63" laneDensity="4.21" occupancy="1.20" waitingTime="43.00" timeLoss="1536.63" speed="8.47" speedRelative="0.76" departed="0" arrived="0" entered="1334" left="1334" laneChangedFrom="0" laneChangedTo="0"/>
        <edge id="-252223483#1" sampledSeconds="18046.57" traveltime="22.50" overlapTraveltime="22.89" density="6.40" laneDensity="1.60" occupancy="0.60" waitingTime="0.00" timeLoss="2755.30" speed="9.32" speedRelative="0.84" departed="0" arrived="792" entered="792" left="0" laneChangedFrom="420" laneChangedTo="420"/>
        <edge id="-252223483#12" sampledSeconds="149203.74" traveltime="131.49" overlapTraveltime="133.45" density="93.45" laneDensity="23.36" occupancy="8.03" waitingTime="107520.00" timeLoss="136733.72" speed="0.92" speedRelative="0.08" departed="1152" arrived="0" entered="0" left="1152" laneChangedFrom="861" laneChangedTo="861"/>
        <edge id="-252223483#2" sampledSeconds="21119.98" traveltime="26.22" overlapTraveltime="26.67" density="6.89" laneDensity="1.72" occupancy="0.65" waitingTime="0.00" timeLoss="4437.25" speed="8.69" speedRelative="0.78" departed="0" arrived="0" entered="792" left="792" laneChangedFrom="2" laneChangedTo="2"/>
        <edge id="-252223483#3" sampledSeconds="25628.52" traveltime="31.92" overlapTraveltime="32.36" density="6.77" laneDensity="1.69" occupancy="0.65" waitingTime="1.00" timeLoss="5100.60" speed="8.81" speedRelative="0.79" departed="0" arrived="0" entered="792" left="792" laneChangedFrom="34" laneChangedTo="34"/>
        <edge id="-252223483#4" sampledSeconds="4583.00" traveltime="5.35" overlapTraveltime="5.79" density="7.11" laneDensity="1.78" occupancy="0.64" waitingTime="0.00" timeLoss="856.29" speed="8.94" speedRelative="0.80" departed="0" arrived="0" entered="792" left="792" laneChangedFrom="0" laneChangedTo="0"/>
        <edge id="-252223483#5" sampledSeconds="1725.33" traveltime="1.75" overlapTraveltime="2.20" density="8.08" laneDensity="2.02" occupancy="0.63" waitingTime="0.00" timeLoss="303.14" speed="9.06" speedRelative="0.82" departed="0" arrived="0" entered="792" left="792" laneChangedFrom="0" laneChangedTo="0"/>
        <edge id="-252223483#6" sampledSeconds="13134.56" traveltime="16.16" overlapTraveltime="16.59" density="6.66" laneDensity="1.67" occupancy="0.63" waitingTime="0.00" timeLoss="2304.22" speed="9.07" speedRelative="0.82" departed="0" arrived="0" entered="792" left="792" laneChangedFrom="0" laneChangedTo="0"/>
        <edge id="-252223483#7" sampledSeconds="1623.27" traveltime="1.63" overlapTraveltime="2.07" density="7.98" laneDensity="1.99" occupancy="0.61" waitingTime="0.00" timeLoss="255.07" speed="9.27" speedRelative="0.83" departed="0" arrived="0" entered="792" left="792" laneChangedFrom="0" laneChangedTo="0"/>
        <edge id="-252223483#8" sampledSeconds="5205.58" traveltime="6.16" overlapTraveltime="6.58" density="6.73" laneDensity="1.68" occupancy="0.61" waitingTime="0.00" timeLoss="785.57" speed="9.34" speedRelative="0.84" departed="0" arrived="0" entered="792" left="792" laneChangedFrom="0" laneChangedTo="0"/>
        <edge id="-252223483#9" sampledSeconds="5204.43" traveltime="6.11" overlapTraveltime="6.58" density="7.17" laneDensity="1.79" occupancy="0.64" waitingTime="2.00" timeLoss="1039.27" speed="8.80" speedRelative="0.79" departed="0" arrived="0" entered="792" left="792" laneChangedFrom="133" laneChangedTo="133"/>
        <edge id="-282035194" sampledSeconds="53437.16" traveltime="39.36" overlapTraveltime="39.89" density="42.65" laneDensity="21.32" occupancy="6.92" waitingTime="31027.00" timeLoss="43798.29" speed="2.42" speedRelative="0.17" departed="732" arrived="637" entered="638" left="733" laneChangedFrom="0" laneChangedTo="0"/>
        <edge id="-596568238#0" sampledSeconds="1182.30" traveltime="4.26" overlapTraveltime="4.52" density="2.20" laneDensity="0.73" occupancy="0.17" waitingTime="0.00" timeLoss="172.81" speed="9.41" speedRelative="0.85" departed="0" arrived="264" entered="264" left="0" laneChangedFrom="0" laneChangedTo="0"/>
        <edge id="-724187422#0" sampledSeconds="2950.99" traveltime="3.23" overlapTraveltime="3.61" density="8.31" laneDensity="2.77" occupancy="0.78" waitingTime="0.00" timeLoss="742.75" speed="8.19" speedRelative="0.74" departed="0" arrived="0" entered="818" left="818" laneChangedFrom="0" laneChangedTo="0"/>
        <edge id="-724187422#1" sampledSeconds="26597.16" traveltime="36.93" overlapTraveltime="37.33" density="17.73" laneDensity="5.91" occupancy="1.83" waitingTime="12943.00" timeLoss="19162.47" speed="3.07" speedRelative="0.28" departed="733" arrived="0" entered="0" left="733" laneChangedFrom="0" laneChangedTo="0"/>
        <edge id="-836685800#0" sampledSeconds="10431.26" traveltime="6.73" overlapTraveltime="7.11" density="13.32" laneDensity="4.44" occupancy="1.36" waitingTime="0.00" timeLoss="2180.65" speed="8.65" speedRelative="0.78" departed="0" arrived="0" entered="1468" left="1468" laneChangedFrom="0" laneChangedTo="0"/>
        <edge id="-836685800#1" sampledSeconds="44891.55" traveltime="33.65" overlapTraveltime="34.00" density="49.49" laneDensity="16.50" occupancy="5.08" waitingTime="26787.00" timeLoss="36343.45" speed="2.07" speedRelative="0.19" departed="1383" arrived="0" entered="0" left="1383" laneChangedFrom="0" laneChangedTo="0"/>
        <edge id="-836685805#1" sampledSeconds="293163.78" traveltime="177.46" overlapTraveltime="177.83" density="93.57" laneDensity="31.19" occupancy="9.10" waitingTime="205174.00" timeLoss="257743.33" speed="1.33" speedRelative="0.12" departed="1670" arrived="0" entered="0" left="1670" laneChangedFrom="0" laneChangedTo="0"/>
        <edge id="-836685805#2" sampledSeconds="10909.38" traveltime="7.16" overlapTraveltime="7.50" density="12.93" laneDensity="4.31" occupancy="1.34" waitingTime="0.00" timeLoss="2138.65" speed="8.80" speedRelative="0.79" departed="0" arrived="1468" entered="1468" left="0" laneChangedFrom="0" laneChangedTo="0"/>
        <edge id="-836685805#3" sampledSeconds="12772.23" traveltime="8.31" overlapTraveltime="8.70" density="13.69" laneDensity="4.56" occupancy="1.42" waitingTime="0.00" timeLoss="3027.83" speed="8.35" speedRelative="0.75" departed="0" arrived="0" entered="1468" left="1468" laneChangedFrom="0" laneChangedTo="0"/>
        <edge id="-836685805#4" sampledSeconds="9410.82" traveltime="6.03" overlapTraveltime="6.41" density="13.66" laneDensity="4.55" occupancy="1.39" waitingTime="0.00" timeLoss="2103.73" speed="8.49" speedRelative="0.76" departed="0" arrived="0" entered="1468" left="1468" laneChangedFrom="0" laneChangedTo="0"/>
        <edge id="-902581873" sampledSeconds="652.27" traveltime="12.80" overlapTraveltime="18.68" density="0.90" laneDensity="0.90" occupancy="0.34" waitingTime="278.00" timeLoss="478.81" speed="3.10" speedRelative="0.22" departed="0" arrived="0" entered="35" left="35" laneChangedFrom="0" laneChangedTo="0"/>
        <edge id="23518777#0" sampledSeconds="8.44" traveltime="7.81" overlapTraveltime="8.44" density="0.01" laneDensity="0.01" occupancy="0.01" waitingTime="0.00" timeLoss="0.83" speed="7.29" speedRelative="0.88" departed="0" arrived="0" entered="1" left="1" laneChangedFrom="0" laneChangedTo="0"/>
        <edge id="23518777#1" sampledSeconds="10.42" traveltime="9.75" overlapTraveltime="10.42" density="0.01" laneDensity="0.01" occupancy="0.01" waitingTime="0.00" timeLoss="0.86" speed="7.42" speedRelative="0.89" departed="0" arrived="0" entered="1" left="1" laneChangedFrom="0" laneChangedTo="0"/>
        <edge id="23518777#2" sampledSeconds="4.94" traveltime="4.24" overlapTraveltime="4.94" density="0.01" laneDensity="0.01" occupancy="0.00" waitingTime="0.00" timeLoss="0.30" speed="7.60" speedRelative="0.91" departed="0" arrived="0" entered="1" left="1" laneChangedFrom="0" laneChangedTo="0"/>
        <edge id="23518777#3" sampledSeconds="6.71" traveltime="6.07" overlapTraveltime="6.71" density="0.01" laneDensity="0.01" occupancy="0.01" waitingTime="0.00" timeLoss="0.62" speed="7.34" speedRelative="0.88" departed="0" arrived="1" entered="1" left="0" laneChangedFrom="0" laneChangedTo="0"/>
        <edge id="23518904" sampledSeconds="30384.25" traveltime="15.13" overlapTraveltime="16.78" density="58.42" laneDensity="19.47" occupancy="5.76" waitingTime="15970.00" timeLoss="23464.63" speed="2.50" speedRelative="0.22" departed="0" arrived="0" entered="1815" left="1815" laneChangedFrom="0" laneChangedTo="0"/>
        <edge id="23518959#1" sampledSeconds="1872.08" traveltime="11.84" overlapTraveltime="12.48" density="2.75" laneDensity="2.75" occupancy="0.89" waitingTime="0.00" timeLoss="494.88" speed="4.33" speedRelative="0.78" departed="0" arrived="0" entered="150" left="150" laneChangedFrom="0" laneChangedTo="0"/>
        <edge id="23518959#4" sampledSeconds="6000.58" traveltime="17.95" overlapTraveltime="18.76" density="14.46" laneDensity="14.46" occupancy="4.51" waitingTime="2852.00" timeLoss="4042.93" speed="1.82" speedRelative="0.33" departed="0" arrived="0" entered="320" left="320" laneChangedFrom="0" laneChangedTo="0"/>
        <edge id="23519061#1" sampledSeconds="1488.63" traveltime="9.31" overlapTraveltime="9.94" density="1.62" laneDensity="1.62" occupancy="0.55" waitingTime="226.00" timeLoss="682.79" speed="7.22" speedRelative="0.52" departed="0" arrived="0" entered="150" left="150" laneChangedFrom="0" laneChangedTo="0"/>
        <edge id="23519061#2" sampledSeconds="170.58" traveltime="11.91" overlapTraveltime="12.19" density="0.09" laneDensity="0.09" occupancy="0.03" waitingTime="0.00" timeLoss="29.94" speed="11.32" speedRelative="0.82" departed="0" arrived="0" entered="14" left="14" laneChangedFrom="0" laneChangedTo="0"/>
        <edge id="23519061#3" sampledSeconds="90.57" traveltime="5.84" overlapTraveltime="6.49" density="0.19" laneDensity="0.19" occupancy="0.06" waitingTime="18.00" timeLoss="46.98" speed="6.07" speedRelative="0.44" departed="0" arrived="0" entered="14" left="14" laneChangedFrom="0" laneChangedTo="0"/>
        <edge id="23519080" sampledSeconds="1808.44" traveltime="29.98" overlapTraveltime="30.16" density="0.37" laneDensity="0.19" occupancy="0.04" waitingTime="0.00" timeLoss="222.52" speed="12.04" speedRelative="0.87" departed="0" arrived="60" entered="60" left="0" laneChangedFrom="0" laneChangedTo="0"/>
        <edge id="23519164" sampledSeconds="19588.32" traveltime="10.58" overlapTraveltime="11.02" density="23.30" laneDensity="7.77" occupancy="2.39" waitingTime="4095.00" timeLoss="8944.90" speed="5.96" speedRelative="0.54" departed="0" arrived="0" entered="1779" left="1779" laneChangedFrom="0" laneChangedTo="0"/>
        <edge id="23519248" sampledSeconds="39523.87" traveltime="20.74" overlapTraveltime="21.78" density="37.78" laneDensity="12.59" occupancy="3.85" waitingTime="14437.42" timeLoss="26137.29" speed="3.72" speedRelative="0.33" departed="0" arrived="0" entered="1815" left="1815" laneChangedFrom="0" laneChangedTo="0"/>
        <edge id="23519339" sampledSeconds="167974.00" traveltime="176.26" overlapTraveltime="176.77" density="82.36" laneDensity="41.18" occupancy="12.68" waitingTime="117980.00" timeLoss="157055.03" speed="0.87" speedRelative="0.06" departed="746" arrived="0" entered="219" left="965" laneChangedFrom="0" laneChangedTo="0"/>
        <edge id="23519483#0" sampledSeconds="59196.74" traveltime="19.08" overlapTraveltime="19.52" density="125.43" laneDensity="41.81" occupancy="11.82" waitingTime="39621.52" timeLoss="48701.20" speed="1.95" speedRelative="0.18" departed="1346" arrived="1778" entered="1815" left="1383" laneChangedFrom="0" laneChangedTo="0"/>
        <edge id="23519483#1" sampledSeconds="36064.48" traveltime="9.05" overlapTraveltime="9.40" density="67.88" laneDensity="22.63" occupancy="6.35" waitingTime="12358.00" timeLoss="21310.01" speed="4.51" speedRelative="0.41" departed="1297" arrived="2666" entered="2667" left="1298" laneChangedFrom="0" laneChangedTo="0"/>
        <edge id="23519483#3" sampledSeconds="15297.68" traveltime="11.12" overlapTraveltime="11.42" density="11.35" laneDensity="3.78" occupancy="1.07" waitingTime="0.00" timeLoss="2764.00" speed="9.02" speedRelative="0.81" departed="0" arrived="1345" entered="1346" left="1" laneChangedFrom="0" laneChangedTo="0"/>
        <edge id="23519483#4" sampledSeconds="61333.25" traveltime="38.23" overlapTraveltime="38.54" density="74.56" laneDensity="24.85" occupancy="7.32" waitingTime="43134.00" timeLoss="52007.03" speed="1.66" speedRelative="0.15" departed="1670" arrived="0" entered="1" left="1671" laneChangedFrom="0" laneChangedTo="0"/>
        <edge id="23519706#0" sampledSeconds="2224.22" traveltime="160.78" overlapTraveltime="185.39" density="1.42" laneDensity="1.42" occupancy="0.48" waitingTime="1755.00" timeLoss="2050.15" speed="0.65" speedRelative="0.08" departed="0" arrived="0" entered="12" left="12" laneChangedFrom="0" laneChangedTo="0"/>
        <edge id="23519706#8" sampledSeconds="187812.99" traveltime="310.36" overlapTraveltime="312.01" density="69.62" laneDensity="23.21" occupancy="8.27" waitingTime="130649.00" timeLoss="172915.62" speed="0.65" speedRelative="0.08" departed="613" arrived="0" entered="0" left="613" laneChangedFrom="0" laneChangedTo="0"/>
        <edge id="23520170" sampledSeconds="47405.63" traveltime="61.86" overlapTraveltime="61.67" density="128.10" laneDensity="32.02" occupancy="9.12" waitingTime="41408.00" timeLoss="45516.16" speed="0.49" speedRelative="0.04" departed="852" arrived="0" entered="0" left="852" laneChangedFrom="292" laneChangedTo="292"/>
        <edge id="23520349#4" sampledSeconds="11789.66" traveltime="35.47" overlapTraveltime="36.39" density="6.59" laneDensity="6.59" occupancy="2.22" waitingTime="112.00" timeLoss="3722.26" speed="3.75" speedRelative="0.67" departed="0" arrived="0" entered="324" left="324" laneChangedFrom="0" laneChangedTo="0"/>
        <edge id="23520349#5" sampledSeconds="7215.22" traveltime="21.36" overlapTraveltime="22.28" density="7.77" laneDensity="7.77" occupancy="2.58" waitingTime="665.00" timeLoss="2931.13" speed="3.25" speedRelative="0.59" departed="0" arrived="0" entered="324" left="324" laneChangedFrom="0" laneChangedTo="0"/>
        <edge id="23520484#0" sampledSeconds="204.15" traveltime="1.85" overlapTraveltime="2.18" density="1.29" laneDensity="0.65" occupancy="0.12" waitingTime="0.00" timeLoss="44.49" speed="6.39" speedRelative="0.77" departed="0" arrived="96" entered="96" left="0" laneChangedFrom="0" laneChangedTo="0"/>