<?xml version="1.0" encoding="UTF-8"?>

<!-- generated on 2024-08-24 03:19:52 by Eclipse SUMO sumo Version 1.18.0
<configuration xmlns:xsi="http://www.w3.org/2001/XMLSchema-instance" xsi:noNamespaceSchemaLocation="http://sumo.dlr.de/xsd/sumoConfiguration.xsd">

    <input>
        <net-file value="osm.net.xml.gz"/>
        <route-files value="2019route.rou.xml, adnutoadnu.rou.xml"/>
        <additional-files value="osm.poly.xml.gz"/>
    </input>

    <output>
        <edgedata-output value="WithoutEdgeData2019.xml"/>
    </output>

    <processing>
        <ignore-route-errors value="true"/>
        <tls.actuated.show-detectors value="false"/>
    </processing>

    <routing>
        <device.rerouting.adaptation-steps value="18"/>
        <device.rerouting.adaptation-interval value="10"/>
    </routing>

    <report>
        <verbose value="true"/>
        <duration-log.statistics value="true"/>
        <no-step-log value="true"/>
    </report>

    <gui_only>
        <gui-settings-file value="osm.view.xml"/>
    </gui_only>

</configuration>
-->

<meandata xmlns:xsi="http://www.w3.org/2001/XMLSchema-instance" xsi:noNamespaceSchemaLocation="http://sumo.dlr.de/xsd/meandata_file.xsd">
    <interval begin="0.00" end="8327.00" id="DEFAULT_EDGEDATA">
        <edge id="-23518777#0" sampledSeconds="8.78" traveltime="8.06" overlapTraveltime="8.78" density="0.02" laneDensity="0.02" occupancy="0.01" waitingTime="0.00" timeLoss="0.92" speed="7.02" speedRelative="0.84" departed="0" arrived="0" entered="1" left="1" laneChangedFrom="0" laneChangedTo="0"/>
        <edge id="-23518777#1" sampledSeconds="10.60" traveltime="9.87" overlapTraveltime="10.60" density="0.02" laneDensity="0.02" occupancy="0.01" waitingTime="0.00" timeLoss="0.79" speed="7.31" speedRelative="0.88" departed="0" arrived="0" entered="1" left="1" laneChangedFrom="0" laneChangedTo="0"/>
        <edge id="-23518777#2" sampledSeconds="5.12" traveltime="4.39" overlapTraveltime="5.12" density="0.02" laneDensity="0.02" occupancy="0.01" waitingTime="0.00" timeLoss="0.37" speed="7.32" speedRelative="0.88" departed="0" arrived="0" entered="1" left="1" laneChangedFrom="0" laneChangedTo="0"/>
        <edge id="-23518777#3" sampledSeconds="7.65" traveltime="7.84" overlapTraveltime="8.53" density="0.02" laneDensity="0.02" occupancy="0.01" waitingTime="0.00" timeLoss="2.05" speed="5.77" speedRelative="0.69" departed="1" arrived="0" entered="0" left="1" laneChangedFrom="0" laneChangedTo="0"/>
        <edge id="-23518959#3" sampledSeconds="2517.21" traveltime="17.07" overlapTraveltime="17.72" density="4.52" laneDensity="4.52" occupancy="1.43" waitingTime="0.00" timeLoss="704.12" speed="3.96" speedRelative="0.71" departed="0" arrived="0" entered="142" left="142" laneChangedFrom="0" laneChangedTo="0"/>
        <edge id="-23518974#0" sampledSeconds="435.89" traveltime="4.43" overlapTraveltime="4.97" density="1.15" laneDensity="1.15" occupancy="0.34" waitingTime="0.00" timeLoss="111.59" speed="9.86" speedRelative="0.71" departed="0" arrived="0" entered="88" left="88" laneChangedFrom="0" laneChangedTo="0"/>
        <edge id="-23518974#1" sampledSeconds="248.62" traveltime="2.59" overlapTraveltime="2.83" density="1.00" laneDensity="1.00" occupancy="0.28" waitingTime="0.00" timeLoss="51.68" speed="11.67" speedRelative="0.84" departed="0" arrived="0" entered="88" left="88" laneChangedFrom="0" laneChangedTo="0"/>
        <edge id="-23518978#0" sampledSeconds="1006.15" traveltime="4.19" overlapTraveltime="4.48" density="2.54" laneDensity="2.54" occupancy="0.78" waitingTime="0.00" timeLoss="177.17" speed="11.37" speedRelative="0.82" departed="0" arrived="0" entered="225" left="225" laneChangedFrom="0" laneChangedTo="0"/>
        <edge id="-23518978#1" sampledSeconds="568.47" traveltime="3.71" overlapTraveltime="4.01" density="1.61" laneDensity="1.61" occupancy="0.50" waitingTime="0.00" timeLoss="81.39" speed="11.40" speedRelative="0.82" departed="0" arrived="0" entered="142" left="142" laneChangedFrom="0" laneChangedTo="0"/>
        <edge id="-23518978#2" sampledSeconds="826.18" traveltime="5.53" overlapTraveltime="5.82" density="1.63" laneDensity="1.63" occupancy="0.51" waitingTime="0.00" timeLoss="141.97" speed="11.02" speedRelative="0.79" departed="0" arrived="0" entered="142" left="142" laneChangedFrom="0" laneChangedTo="0"/>
        <edge id="-23519080" sampledSeconds="18059.35" traveltime="215.02" overlapTraveltime="216.36" density="6.01" laneDensity="3.01" occupancy="0.66" waitingTime="13809.00" timeLoss="15877.57" speed="1.68" speedRelative="0.12" departed="84" arrived="0" entered="0" left="84" laneChangedFrom="0" laneChangedTo="0"/>
        <edge id="-23519229#0" sampledSeconds="1230.28" traveltime="13.37" overlapTraveltime="13.99" density="0.91" laneDensity="0.91" occupancy="0.28" waitingTime="0.00" timeLoss="201.12" speed="11.89" speedRelative="0.86" departed="0" arrived="0" entered="88" left="88" laneChangedFrom="0" laneChangedTo="0"/>
        <edge id="-23519229#1" sampledSeconds="288.18" traveltime="3.04" overlapTraveltime="3.28" density="0.87" laneDensity="0.87" occupancy="0.25" waitingTime="0.00" timeLoss="32.58" speed="13.07" speedRelative="0.94" departed="0" arrived="0" entered="88" left="88" laneChangedFrom="0" laneChangedTo="0"/>
        <edge id="-23519229#2" sampledSeconds="2287.12" traveltime="3.11" overlapTraveltime="3.66" density="10.32" laneDensity="10.32" occupancy="3.08" waitingTime="0.00" timeLoss="697.25" speed="8.23" speedRelative="0.59" departed="0" arrived="0" entered="627" left="627" laneChangedFrom="0" laneChangedTo="0"/>
        <edge id="-23519248" sampledSeconds="16098.34" traveltime="11.66" overlapTraveltime="12.52" density="24.79" laneDensity="8.26" occupancy="2.46" waitingTime="1144.00" timeLoss="6233.24" speed="6.48" speedRelative="0.58" departed="0" arrived="0" entered="1286" left="1286" laneChangedFrom="0" laneChangedTo="0"/>
        <edge id="-23519257" sampledSeconds="158.49" traveltime="13.74" overlapTraveltime="14.42" density="0.13" laneDensity="0.13" occupancy="0.05" waitingTime="5.00" timeLoss="36.95" speed="10.09" speedRelative="0.73" departed="0" arrived="0" entered="11" left="11" laneChangedFrom="0" laneChangedTo="0"/>
        <edge id="-23519479#0" sampledSeconds="2714.43" traveltime="4.30" overlapTraveltime="5.05" density="10.52" laneDensity="10.52" occupancy="3.30" waitingTime="82.00" timeLoss="1108.67" speed="6.84" speedRelative="0.49" departed="0" arrived="0" entered="539" left="539" laneChangedFrom="0" laneChangedTo="0"/>
        <edge id="-23519479#1" sampledSeconds="3340.64" traveltime="5.88" overlapTraveltime="6.20" density="6.09" laneDensity="6.09" occupancy="1.98" waitingTime="7.00" timeLoss="549.73" speed="11.19" speedRelative="0.81" departed="0" arrived="0" entered="539" left="539" laneChangedFrom="0" laneChangedTo="0"/>
        <edge id="-23519479#2" sampledSeconds="6823.73" traveltime="12.36" overlapTraveltime="12.66" density="5.98" laneDensity="5.98" occupancy="1.99" waitingTime="0.00" timeLoss="1171.43" speed="11.10" speedRelative="0.80" departed="0" arrived="0" entered="539" left="539" laneChangedFrom="0" laneChangedTo="0"/>
        <edge id="-23519483#0" sampledSeconds="5671.59" traveltime="3.90" overlapTraveltime="4.25" density="19.42" laneDensity="6.47" occupancy="1.82" waitingTime="0.00" timeLoss="1032.51" speed="8.98" speedRelative="0.81" departed="0" arrived="48" entered="1334" left="1286" laneChangedFrom="0" laneChangedTo="0"/>
        <edge id="-23519483#1" sampledSeconds="15896.19" traveltime="5.83" overlapTraveltime="6.23" density="48.35" laneDensity="16.12" occupancy="4.90" waitingTime="28.00" timeLoss="5909.75" speed="6.86" speedRelative="0.62" departed="1383" arrived="1261" entered="1297" left="1419" laneChangedFrom="0" laneChangedTo="0"/>
        <edge id="-23519483#3" sampledSeconds="19295.04" traveltime="14.73" overlapTraveltime="15.23" density="23.11" laneDensity="7.70" occupancy="2.42" waitingTime="498.24" timeLoss="7335.98" speed="6.80" speedRelative="0.61" departed="1309" arrived="0" entered="0" left="1309" laneChangedFrom="0" laneChangedTo="0"/>
        <edge id="-23519483#4" sampledSeconds="17046.57" traveltime="6.90" overlapTraveltime="7.21" density="33.49" laneDensity="11.16" occupancy="3.23" waitingTime="0.00" timeLoss="3261.36" speed="8.90" speedRelative="0.80" departed="0" arrived="2379" entered="2392" left="0" laneChangedFrom="0" laneChangedTo="0"/>
        <edge id="-23519582#1" sampledSeconds="137.25" traveltime="5.55" overlapTraveltime="5.73" density="0.24" laneDensity="0.12" occupancy="0.03" waitingTime="0.00" timeLoss="16.06" speed="12.26" speedRelative="0.88" departed="0" arrived="24" entered="24" left="0" laneChangedFrom="0" laneChangedTo="0"/>
        <edge id="-23519667#1" sampledSeconds="251.25" traveltime="7.68" overlapTraveltime="8.38" density="0.55" laneDensity="0.55" occupancy="0.21" waitingTime="0.00" timeLoss="49.11" speed="7.08" speedRelative="0.85" departed="0" arrived="0" entered="30" left="30" laneChangedFrom="0" laneChangedTo="0"/>
        <edge id="-23519706#0" sampledSeconds="41285.29" traveltime="58.95" overlapTraveltime="59.95" density="42.56" laneDensity="42.56" occupancy="14.11" waitingTime="17928.00" timeLoss="31235.13" speed="2.00" speedRelative="0.24" departed="0" arrived="0" entered="688" left="688" laneChangedFrom="0" laneChangedTo="0"/>
        <edge id="-23519706#1" sampledSeconds="20332.25" traveltime="29.68" overlapTraveltime="30.30" density="17.80" laneDensity="17.80" occupancy="6.03" waitingTime="4226.00" timeLoss="8840.14" speed="4.64" speedRelative="0.56" departed="0" arrived="0" entered="671" left="671" laneChangedFrom="0" laneChangedTo="0"/>
        <edge id="-23519706#2" sampledSeconds="8329.33" traveltime="29.89" overlapTraveltime="30.40" density="4.88" laneDensity="4.88" occupancy="1.67" waitingTime="0.00" timeLoss="1579.75" speed="6.85" speedRelative="0.82" departed="0" arrived="0" entered="274" left="274" laneChangedFrom="0" laneChangedTo="0"/>
        <edge id="-23519706#3" sampledSeconds="1272.78" traveltime="4.14" overlapTraveltime="4.65" density="5.36" laneDensity="5.36" occupancy="1.66" waitingTime="0.00" timeLoss="235.55" speed="6.89" speedRelative="0.83" departed="0" arrived="0" entered="274" left="274" laneChangedFrom="0" laneChangedTo="0"/>
        <edge id="-23519706#4" sampledSeconds="1546.61" traveltime="5.14" overlapTraveltime="5.65" density="5.20" laneDensity="5.20" occupancy="1.65" waitingTime="0.00" timeLoss="274.78" speed="6.95" speedRelative="0.83" departed="0" arrived="0" entered="274" left="274" laneChangedFrom="0" laneChangedTo="0"/>
        <edge id="-23519706#5" sampledSeconds="10603.65" traveltime="11.21" overlapTraveltime="11.77" density="17.59" laneDensity="17.59" occupancy="5.70" waitingTime="0.00" timeLoss="2324.50" speed="6.44" speedRelative="0.77" departed="0" arrived="0" entered="901" left="901" laneChangedFrom="0" laneChangedTo="0"/>
        <edge id="-23519706#6" sampledSeconds="1852.96" traveltime="1.55" overlapTraveltime="2.07" density="21.34" laneDensity="21.34" occupancy="5.43" waitingTime="0.00" timeLoss="334.95" speed="6.74" speedRelative="0.81" departed="0" arrived="0" entered="901" left="901" laneChangedFrom="0" laneChangedTo="0"/>
        <edge id="-23519706#7" sampledSeconds="965.12" traveltime="0.51" overlapTraveltime="1.18" density="46.92" laneDensity="46.92" occupancy="6.71" waitingTime="25.00" timeLoss="318.41" speed="5.52" speedRelative="0.66" departed="0" arrived="0" entered="901" left="901" laneChangedFrom="0" laneChangedTo="0"/>
        <edge id="-23519706#8" sampledSeconds="30150.43" traveltime="32.88" overlapTraveltime="33.51" density="18.10" laneDensity="6.03" occupancy="2.03" waitingTime="155.00" timeLoss="7907.98" speed="6.07" speedRelative="0.73" departed="0" arrived="0" entered="901" left="896" laneChangedFrom="0" laneChangedTo="0"/>
        <edge id="-23520484#0" sampledSeconds="13195.36" traveltime="16.39" overlapTraveltime="15.20" density="135.09" laneDensity="67.55" occupancy="15.79" waitingTime="9947.00" timeLoss="11685.84" speed="0.93" speedRelative="0.11" departed="1058" arrived="0" entered="0" left="1058" laneChangedFrom="0" laneChangedTo="0" teleported="13"/>
        <edge id="-23520619" sampledSeconds="1428.93" traveltime="5.43" overlapTraveltime="6.12" density="3.53" laneDensity="3.53" occupancy="1.10" waitingTime="0.00" timeLoss="465.81" speed="8.51" speedRelative="0.61" departed="0" arrived="0" entered="234" left="234" laneChangedFrom="0" laneChangedTo="0"/>
        <edge id="-23520880#0" sampledSeconds="473389.48" traveltime="388.45" overlapTraveltime="388.98" density="153.62" laneDensity="76.81" occupancy="20.24" waitingTime="227124.00" timeLoss="418494.70" speed="0.96" speedRelative="0.12" departed="1226" arrived="0" entered="0" left="1226" laneChangedFrom="0" laneChangedTo="0"/>
        <edge id="-23520880#1" sampledSeconds="8265.20" traveltime="8.71" overlapTraveltime="9.20" density="17.55" laneDensity="17.55" occupancy="5.62" waitingTime="0.00" timeLoss="1719.42" speed="6.52" speedRelative="0.78" departed="0" arrived="913" entered="913" left="0" laneChangedFrom="0" laneChangedTo="0"/>
        <edge id="-23520880#2" sampledSeconds="8088.40" traveltime="8.32" overlapTraveltime="9.06" density="44.95" laneDensity="44.95" occupancy="14.60" waitingTime="3639.00" timeLoss="5220.82" speed="2.78" speedRelative="0.33" departed="0" arrived="0" entered="895" left="895" laneChangedFrom="0" laneChangedTo="0" teleported="1"/>
        <edge id="-23520886#0" sampledSeconds="8.43" traveltime="7.94" overlapTraveltime="8.43" density="0.01" laneDensity="0.01" occupancy="0.00" waitingTime="0.00" timeLoss="0.81" speed="9.51" speedRelative="0.86" departed="0" arrived="0" entered="1" left="1" laneChangedFrom="0" laneChangedTo="0"/>
        <edge id="-23520994" sampledSeconds="737.26" traveltime="24.26" overlapTraveltime="24.57" density="0.28" laneDensity="0.28" occupancy="0.12" waitingTime="0.00" timeLoss="83.11" speed="13.13" speedRelative="0.95" departed="0" arrived="0" entered="30" left="30" laneChangedFrom="0" laneChangedTo="0"/>
        <edge id="-23521401#0" sampledSeconds="221140.13" traveltime="346.07" overlapTraveltime="347.20" density="89.11" laneDensity="44.55" occupancy="16.14" waitingTime="133953.00" timeLoss="203617.02" speed="0.87" speedRelative="0.08" departed="444" arrived="0" entered="198" left="642" laneChangedFrom="0" laneChangedTo="0" teleported="1"/>
        <edge id="-23521401#1" sampledSeconds="3492.72" traveltime="19.57" overlapTraveltime="22.14" density="43.97" laneDensity="43.97" occupancy="19.43" waitingTime="2717.00" timeLoss="3284.08" speed="0.66" speedRelative="0.06" departed="0" arrived="0" entered="166" left="166" laneChangedFrom="0" laneChangedTo="0"/>
        <edge id="-23521696#2" sampledSeconds="14433.17" traveltime="15.65" overlapTraveltime="16.13" density="16.49" laneDensity="5.50" occupancy="1.82" waitingTime="0.00" timeLoss="2610.23" speed="6.73" speedRelative="0.81" departed="0" arrived="886" entered="903" left="13" laneChangedFrom="0" laneChangedTo="0"/>
        <edge id="-23521793" sampledSeconds="409.14" traveltime="13.09" overlapTraveltime="13.64" density="0.30" laneDensity="0.30" occupancy="0.13" waitingTime="0.00" timeLoss="63.90" speed="12.30" speedRelative="0.89" departed="0" arrived="0" entered="30" left="30" laneChangedFrom="0" laneChangedTo="0"/>
        <edge id="-23521917#5" sampledSeconds="5067.52" traveltime="12.50" overlapTraveltime="12.84" density="5.23" laneDensity="2.61" occupancy="0.84" waitingTime="0.00" timeLoss="759.62" speed="9.32" speedRelative="0.84" departed="0" arrived="397" entered="397" left="0" laneChangedFrom="0" laneChangedTo="0"/>
        <edge id="-23522098#0" sampledSeconds="48378.52" traveltime="94.51" overlapTraveltime="94.77" density="115.71" laneDensity="115.71" occupancy="34.48" waitingTime="38909.00" timeLoss="46223.53" speed="0.56" speedRelative="0.04" departed="542" arrived="0" entered="0" left="542" laneChangedFrom="0" laneChangedTo="0"/>
        <edge id="-23540252" sampledSeconds="18362.46" traveltime="29.12" overlapTraveltime="29.66" density="14.56" laneDensity="7.28" occupancy="2.48" waitingTime="8156.00" timeLoss="11240.31" speed="5.22" speedRelative="0.38" departed="0" arrived="396" entered="621" left="224" laneChangedFrom="0" laneChangedTo="0"/>
        <edge id="-23540254" sampledSeconds="6385.94" traveltime="4.59" overlapTraveltime="4.97" density="19.63" laneDensity="6.54" occupancy="1.89" waitingTime="0.00" timeLoss="1438.04" speed="8.50" speedRelative="0.77" departed="0" arrived="0" entered="1286" left="1286" laneChangedFrom="0" laneChangedTo="0"/>
        <edge id="-25055326#0" sampledSeconds="33.75" traveltime="2.25" overlapTraveltime="2.60" density="0.16" laneDensity="0.16" occupancy="0.05" waitingTime="0.00" timeLoss="5.66" speed="11.17" speedRelative="0.80" departed="0" arrived="0" entered="13" left="13" laneChangedFrom="0" laneChangedTo="0"/>
        <edge id="-25055326#1" sampledSeconds="105.71" traveltime="7.84" overlapTraveltime="8.13" density="0.14" laneDensity="0.14" occupancy="0.05" waitingTime="0.00" timeLoss="17.03" speed="11.42" speedRelative="0.82" departed="0" arrived="0" entered="13" left="13" laneChangedFrom="0" laneChangedTo="0"/>
        <edge id="-252223483#1" sampledSeconds="16571.88" traveltime="22.35" overlapTraveltime="22.75" density="9.50" laneDensity="2.37" occupancy="0.92" waitingTime="0.00" timeLoss="2461.04" speed="9.39" speedRelative="0.84" departed="0" arrived="732" entered="732" left="0" laneChangedFrom="385" laneChangedTo="385"/>
        <edge id="-252223483#12" sampledSeconds="81552.34" traveltime="85.61" overlapTraveltime="88.77" density="82.54" laneDensity="20.64" occupancy="7.68" waitingTime="51895.00" timeLoss="71241.97" speed="1.38" speedRelative="0.12" departed="949" arrived="0" entered="0" left="949" laneChangedFrom="669" laneChangedTo="669"/>
        <edge id="-252223483#2" sampledSeconds="18860.53" traveltime="26.40" overlapTraveltime="26.87" density="9.94" laneDensity="2.49" occupancy="0.97" waitingTime="0.00" timeLoss="4050.48" speed="8.63" speedRelative="0.78" departed="0" arrived="0" entered="702" left="702" laneChangedFrom="0" laneChangedTo="0"/>
        <edge id="-252223483#3" sampledSeconds="22802.10" traveltime="32.02" overlapTraveltime="32.48" density="9.74" laneDensity="2.43" occupancy="0.96" waitingTime="1.00" timeLoss="4580.05" speed="8.78" speedRelative="0.79" departed="0" arrived="0" entered="702" left="702" laneChangedFrom="34" laneChangedTo="34"/>
        <edge id="-252223483#4" sampledSeconds="4291.75" traveltime="5.40" overlapTraveltime="5.87" density="10.76" laneDensity="2.69" occupancy="0.99" waitingTime="0.00" timeLoss="834.88" speed="8.85" speedRelative="0.80" departed="0" arrived="0" entered="732" left="732" laneChangedFrom="0" laneChangedTo="0"/>
        <edge id="-252223483#5" sampledSeconds="1625.48" traveltime="1.77" overlapTraveltime="2.24" density="12.30" laneDensity="3.08" occupancy="0.98" waitingTime="0.00" timeLoss="305.54" speed="8.95" speedRelative="0.81" departed="0" arrived="0" entered="732" left="732" laneChangedFrom="0" laneChangedTo="0"/>
        <edge id="-252223483#6" sampledSeconds="12492.03" traveltime="16.32" overlapTraveltime="16.77" density="10.24" laneDensity="2.56" occupancy="0.99" waitingTime="0.00" timeLoss="2309.24" speed="8.98" speedRelative="0.81" departed="0" arrived="0" entered="745" left="745" laneChangedFrom="0" laneChangedTo="0"/>
        <edge id="-252223483#7" sampledSeconds="1529.06" traveltime="1.65" overlapTraveltime="2.11" density="12.14" laneDensity="3.04" occupancy="0.96" waitingTime="0.00" timeLoss="258.94" speed="9.16" speedRelative="0.82" departed="0" arrived="0" entered="732" left="732" laneChangedFrom="0" laneChangedTo="0"/>
        <edge id="-252223483#8" sampledSeconds="4873.43" traveltime="6.22" overlapTraveltime="6.66" density="10.18" laneDensity="2.54" occupancy="0.95" waitingTime="0.00" timeLoss="787.88" speed="9.24" speedRelative="0.83" departed="0" arrived="0" entered="732" left="732" laneChangedFrom="0" laneChangedTo="0"/>
        <edge id="-252223483#9" sampledSeconds="4612.53" traveltime="5.86" overlapTraveltime="6.29" density="10.26" laneDensity="2.57" occupancy="0.94" waitingTime="9.00" timeLoss="754.04" speed="9.22" speedRelative="0.83" departed="0" arrived="0" entered="734" left="731" laneChangedFrom="318" laneChangedTo="318"/>
        <edge id="-282035194" sampledSeconds="57398.64" traveltime="46.24" overlapTraveltime="46.91" density="74.03" laneDensity="37.02" occupancy="12.02" waitingTime="28433.00" timeLoss="48653.26" speed="2.06" speedRelative="0.15" departed="637" arrived="613" entered="615" left="638" laneChangedFrom="0" laneChangedTo="0"/>
        <edge id="-596568238#0" sampledSeconds="1407.20" traveltime="4.29" overlapTraveltime="4.55" density="4.22" laneDensity="1.41" occupancy="0.34" waitingTime="0.00" timeLoss="204.93" speed="9.35" speedRelative="0.84" departed="0" arrived="312" entered="312" left="0" laneChangedFrom="0" laneChangedTo="0"/>
        <edge id="-600501527#2" sampledSeconds="53.22" traveltime="4.03" overlapTraveltime="4.85" density="0.38" laneDensity="0.38" occupancy="0.11" waitingTime="0.00" timeLoss="13.49" speed="4.21" speedRelative="0.76" departed="0" arrived="0" entered="11" left="11" laneChangedFrom="0" laneChangedTo="0"/>
        <edge id="-724187422#0" sampledSeconds="2273.31" traveltime="2.89" overlapTraveltime="3.20" density="10.34" laneDensity="3.45" occupancy="0.87" waitingTime="0.00" timeLoss="375.77" speed="9.14" speedRelative="0.82" departed="0" arrived="0" entered="711" left="711" laneChangedFrom="0" laneChangedTo="0"/>
        <edge id="-724187422#1" sampledSeconds="8714.16" traveltime="13.41" overlapTraveltime="13.76" density="9.39" laneDensity="3.13" occupancy="0.88" waitingTime="3.00" timeLoss="2113.53" speed="8.31" speedRelative="0.75" departed="650" arrived="0" entered="0" left="650" laneChangedFrom="0" laneChangedTo="0"/>
        <edge id="-836685800#0" sampledSeconds="8889.37" traveltime="6.35" overlapTraveltime="6.72" density="18.34" laneDensity="6.11" occupancy="1.92" waitingTime="0.00" timeLoss="1488.13" speed="9.17" speedRelative="0.82" departed="0" arrived="0" entered="1323" left="1323" laneChangedFrom="0" laneChangedTo="0"/>
        <edge id="-836685800#1" sampledSeconds="11760.04" traveltime="9.51" overlapTraveltime="9.97" density="20.95" laneDensity="6.98" occupancy="2.25" waitingTime="18.00" timeLoss="4140.25" speed="7.09" speedRelative="0.64" departed="1239" arrived="0" entered="0" left="1239" laneChangedFrom="0" laneChangedTo="0"/>
        <edge id="-836685805#1" sampledSeconds="126956.70" traveltime="89.59" overlapTraveltime="89.99" density="65.49" laneDensity="21.83" occupancy="6.69" waitingTime="70146.00" timeLoss="96690.09" speed="2.62" speedRelative="0.24" departed="1430" arrived="0" entered="0" left="1430" laneChangedFrom="0" laneChangedTo="0"/>
        <edge id="-836685805#2" sampledSeconds="9655.27" traveltime="7.03" overlapTraveltime="7.38" density="18.49" laneDensity="6.16" occupancy="1.97" waitingTime="0.00" timeLoss="1799.13" speed="8.96" speedRelative="0.81" departed="0" arrived="1323" entered="1323" left="0" laneChangedFrom="0" laneChangedTo="0"/>
        <edge id="-836685805#3" sampledSeconds="11051.36" traveltime="7.96" overlapTraveltime="8.36" density="19.14" laneDensity="6.38" occupancy="2.04" waitingTime="0.00" timeLoss="2312.48" speed="8.70" speedRelative="0.78" departed="0" arrived="0" entered="1323" left="1323" laneChangedFrom="0" laneChangedTo="0"/>
        <edge id="-836685805#4" sampledSeconds="8044.05" traveltime="5.70" overlapTraveltime="6.08" density="18.87" laneDensity="6.29" occupancy="1.97" waitingTime="0.00" timeLoss="1487.71" speed="8.97" speedRelative="0.81" departed="0" arrived="0" entered="1323" left="1323" laneChangedFrom="0" laneChangedTo="0"/>
        <edge id="-902581873" sampledSeconds="242.09" traveltime="6.20" overlapTraveltime="7.59" density="0.54" laneDensity="0.54" occupancy="0.20" waitingTime="0.00" timeLoss="83.98" speed="7.65" speedRelative="0.55" departed="0" arrived="0" entered="32" left="32" laneChangedFrom="0" laneChangedTo="0"/>
        <edge id="23518777#0" sampledSeconds="8.27" traveltime="7.59" overlapTraveltime="8.27" density="0.02" laneDensity="0.02" occupancy="0.01" waitingTime="0.00" timeLoss="0.47" speed="7.44" speedRelative="0.89" departed="0" arrived="0" entered="1" left="1" laneChangedFrom="0" laneChangedTo="0"/>
        <edge id="23518777#1" sampledSeconds="10.95" traveltime="10.25" overlapTraveltime="10.95" density="0.02" laneDensity="0.02" occupancy="0.01" waitingTime="0.00" timeLoss="1.15" speed="7.06" speedRelative="0.85" departed="0" arrived="0" entered="1" left="1" laneChangedFrom="0" laneChangedTo="0"/>
        <edge id="23518777#2" sampledSeconds="5.00" traveltime="4.33" overlapTraveltime="5.00" density="0.02" laneDensity="0.02" occupancy="0.01" waitingTime="0.00" timeLoss="0.25" speed="7.50" speedRelative="0.90" departed="0" arrived="0" entered="1" left="1" laneChangedFrom="0" laneChangedTo="0"/>
        <edge id="23518777#3" sampledSeconds="6.43" traveltime="5.96" overlapTraveltime="6.60" density="0.02" laneDensity="0.02" occupancy="0.01" waitingTime="0.00" timeLoss="0.35" speed="7.46" speedRelative="0.90" departed="0" arrived="1" entered="1" left="0" laneChangedFrom="0" laneChangedTo="0"/>
        <edge id="23518904" sampledSeconds="12270.16" traveltime="5.93" overlapTraveltime="6.47" density="38.13" laneDensity="12.71" occupancy="3.61" waitingTime="2378.00" timeLoss="5065.86" speed="6.47" speedRelative="0.58" departed="0" arrived="0" entered="1899" left="1899" laneChangedFrom="0" laneChangedTo="0"/>
        <edge id="23518959#1" sampledSeconds="1046.55" traveltime="11.33" overlapTraveltime="11.89" density="2.48" laneDensity="2.48" occupancy="0.73" waitingTime="0.00" timeLoss="274.43" speed="4.52" speedRelative="0.81" departed="0" arrived="0" entered="88" left="88" laneChangedFrom="0" laneChangedTo="0"/>
        <edge id="23518959#4" sampledSeconds="4435.43" traveltime="10.38" overlapTraveltime="11.21" density="17.27" laneDensity="17.27" occupancy="5.72" waitingTime="761.00" timeLoss="1983.27" speed="3.07" speedRelative="0.55" departed="0" arrived="0" entered="397" left="397" laneChangedFrom="0" laneChangedTo="0"/>
        <edge id="23519024#3" sampledSeconds="9.44" traveltime="4.34" overlapTraveltime="4.72" density="0.03" laneDensity="0.03" occupancy="0.01" waitingTime="0.00" timeLoss="2.31" speed="10.00" speedRelative="0.72" departed="0" arrived="0" entered="2" left="2" laneChangedFrom="0" laneChangedTo="0"/>
        <edge id="23519061#0" sampledSeconds="66.63" traveltime="16.41" overlapTraveltime="16.66" density="0.04" laneDensity="0.04" occupancy="0.01" waitingTime="0.00" timeLoss="8.92" speed="11.85" speedRelative="0.85" departed="0" arrived="0" entered="4" left="4" laneChangedFrom="0" laneChangedTo="0"/>
        <edge id="23519061#1" sampledSeconds="925.62" traveltime="9.55" overlapTraveltime="10.10" density="1.63" laneDensity="1.63" occupancy="0.52" waitingTime="201.00" timeLoss="456.00" speed="7.09" speedRelative="0.51" departed="0" arrived="0" entered="92" left="92" laneChangedFrom="0" laneChangedTo="0"/>
        <edge id="23519061#2" sampledSeconds="97.43" traveltime="10.63" overlapTraveltime="10.83" density="0.09" laneDensity="0.09" occupancy="0.02" waitingTime="0.00" timeLoss="10.45" speed="12.66" speedRelative="0.91" departed="0" arrived="0" entered="9" left="9" laneChangedFrom="0" laneChangedTo="0"/>
        <edge id="23519061#3" sampledSeconds="54.12" traveltime="5.60" overlapTraveltime="6.00" density="0.18" laneDensity="0.18" occupancy="0.04" waitingTime="18.00" timeLoss="28.06" speed="6.38" speedRelative="0.46" departed="0" arrived="0" entered="9" left="9" laneChangedFrom="0" laneChangedTo="0"/>
        <edge id="23519080" sampledSeconds="1069.20" traveltime="29.54" overlapTraveltime="29.71" density="0.36" laneDensity="0.18" occupancy="0.04" waitingTime="0.00" timeLoss="133.26" speed="12.22" speedRelative="0.88" departed="0" arrived="36" entered="36" left="0" laneChangedFrom="0" laneChangedTo="0"/>
        <edge id="23519164" sampledSeconds="16410.47" traveltime="8.44" overlapTraveltime="8.82" density="31.55" laneDensity="10.52" occupancy="3.20" waitingTime="2060.00" timeLoss="5312.42" speed="7.45" speedRelative="0.67" departed="0" arrived="0" entered="1863" left="1863" laneChangedFrom="0" laneChangedTo="0"/>
        <edge id="23519248" sampledSeconds="22122.04" traveltime="11.22" overlapTraveltime="11.65" density="34.17" laneDensity="11.39" occupancy="3.44" waitingTime="3614.00" timeLoss="8179.77" speed="6.95" speedRelative="0.63" departed="0" arrived="0" entered="1899" left="1899" laneChangedFrom="0" laneChangedTo="0"/>
        <edge id="23519339" sampledSeconds="94302.15" traveltime="125.90" overlapTraveltime="126.84" density="74.73" laneDensity="37.36" occupancy="11.74" waitingTime="44836.00" timeLoss="85828.37" speed="1.22" speedRelative="0.09" departed="530" arrived="0" entered="225" left="754" laneChangedFrom="0" laneChangedTo="0"/>
        <edge id="23519391#1" sampledSeconds="76.71" traveltime="6.33" overlapTraveltime="7.00" density="0.18" laneDensity="0.18" occupancy="0.06" waitingTime="4.00" timeLoss="28.91" speed="7.80" speedRelative="0.56" departed="0" arrived="0" entered="11" left="11" laneChangedFrom="0" laneChangedTo="0"/>
        <edge id="23519463" sampledSeconds="77.16" traveltime="5.65" overlapTraveltime="5.94" density="0.14" laneDensity="0.14" occupancy="0.05" waitingTime="0.00" timeLoss="11.75" speed="11.54" speedRelative="0.83" departed="0" arrived="0" entered="13" left="13" laneChangedFrom="0" laneChangedTo="0"/>